 PROCESS            6  OF           14  WORKING
 PROCESS            7  OF           14  WORKING
 PROCESS            9  OF           14  WORKING
 PROCESS           10  OF           14  WORKING
 PROCESS           11  OF           14  WORKING
 PROCESS           12  OF           14  WORKING
 PROCESS           13  OF           14  WORKING
 PROCESS            1  OF           14  WORKING
 PROCESS            2  OF           14  WORKING
 PROCESS            4  OF           14  WORKING
 PROCESS            5  OF           14  WORKING
 PROCESS            8  OF           14  WORKING
 PROCESS            0  OF           14  WORKING
 PROCESS            3  OF           14  WORKING

         
 *******************************************************************************
 *                                                                             *
 *                               CRYSTAL14                                     *
 *                      public : 1.0.2 - Feb 23rd, 2013                        *
 *                       HTTP://WWW.CRYSTAL.UNITO.IT                           *
 *                                                                             *
 *                              MAIN AUTHORS                                   *
 *                                                                             *
 *  R. DOVESI(1,11), V.R. SAUNDERS(2), C. ROETTI(1,11), R. ORLANDO(1,11),      *
 *  C.M. ZICOVICH-WILSON(1,3), F. PASCALE(4), B. CIVALLERI(1,11),              *
 *  K. DOLL(5), N.M. HARRISON(2,6), I. J. BUSH(7), Ph. D'ARCO(8),              *
 *  M. LLUNELL(9), M. CAUSA'(10), Y. NOEL(8)                                   *
 *                                                                             *
 *        CONTRIBUTIONS TO THE CURRENT RELEASE HAVE BEEN GIVEN BY              *
 *                                                                             *
 *  L. MASCHIO(1,11), S. CASASSA(1,11), A. ERBA(1,11), M. FERRABONE(1,11),     *
 *  M. DE LA PIERRE(1,11), M. FERRERO(1,11), V. LACIVITA(1,11),                *
 *  J. BAIMA(1,11), E. ALBANESE(1,11), M.F. PEINTINGER(12), R. BAST(13),       *
 *  M. RERAT(14), B. KIRTMAN(15), R. DEMICHELIS(1,16)                          *
 *                                                                             *
 * (1) THEORETICAL CHEMISTRY GROUP - UNIVERSITA' DI TORINO - TORINO (ITALY)    *
 *     http://www.crystal.unito.it                                             *
 * (2) COMPUTATIONAL SCIENCE & ENGINEERING DEPARTMENT - STFC DARESBURY (UK)    *
 *     http://www.stfc.ac.uk/CSE/randd/cmg/CRYSTAL/25806.aspx                  *
 * (3) UNIVERSIDAD AUTONOMA DEL ESTADO DE MORELOS - CUERNAVACA (MEXICO)        *
 * (4) UNIVERSITE' DE LORRAINE - NANCY (FRANCE)                                *
 * (5) UNIVERSITAET ULM - ULM (GERMANY); (6) IMPERIAL COLLEGE - LONDON (UK)    *
 * (7) NAG - OXFORD (UK); (8) UPMC - SORBONNE UNIVERSITES - PARIS (FRANCE)     *
 * (9) UNIVERSIDAD DE BARCELONA - BARCELONA (SPAIN)                            *
 *(10) UNIVERSITA' DI NAPOLI "FEDERICO II" - NAPOLI (ITALY)                    *
 *(11) NIS - NANOSTRUCTURED INTERFACES AND SURFACES - TORINO (ITALY)           *
 *(12) MPI FUER CHEMISCHE ENERGIEKONVERSION - MUELHEIM AN DER RUHR (GERMANY)   *
 *(13) UNIVERSITY OF STOCKHOLM - STOCKHOLM (SWEDEN)                            *
 *(14) UNIVERSITE' DE PAU ET DES PAYS DE L'ADOUR - PAU (FRANCE)                *
 *(15) UNIVERSITY OF CALIFORNIA SANTA BARBARA - SANTA BARBARA (USA)            *
 *(16) CURTIN UNIVERSITY - PERTH (AUSTRALIA)                                   *
 *                                                                             *
 ********************************************************************************
 EEEEEEEEEE STARTING  DATE 30 11 2017 TIME 11:57:16.2
 black p                                                                         

 SLAB CALCULATION
 SYSTEM AND LATTICE                   :  OBLIQUE     
 TWO-SIDED PLANE GROUP N.  1          :  P 1             
 CORRESPONDING SPACE GROUP N.   1

 LATTICE PARAMETERS  (ANGSTROMS AND DEGREES) - CONVENTIONAL CELL
           A              B            GAMMA
        3.27000        4.36000       90.00000


 NUMBER OF IRREDUCIBLE ATOMS IN THE CONVENTIONAL CELL:    8

 INPUT COORDINATES

 ATOM AT. N.              COORDINATES
   1  15    -2.500000000000E-01 -4.213700000000E-01  3.700000000000E+00
   2  15     2.500000000000E-01 -7.863000000000E-02  3.700000000000E+00
   3  15     2.500000000000E-01  7.863000000000E-02  1.550000000000E+00
   4  15    -2.500000000000E-01  4.213700000000E-01  1.550000000000E+00
   5  15     2.500000000000E-01 -4.213700000000E-01 -1.550000000000E+00
   6  15    -2.500000000000E-01 -7.863000000000E-02 -1.550000000000E+00
   7  15    -2.500000000000E-01  7.863000000000E-02 -3.700000000000E+00
   8  15     2.500000000000E-01  4.213700000000E-01 -3.700000000000E+00

 *******************************************************************************

 << INFORMATION >>: FROM NOW ON, ALL COORDINATES REFER TO THE PRIMITIVE CELL

 *******************************************************************************

 LATTICE PARAMETERS  (ANGSTROMS AND DEGREES) - PRIMITIVE CELL
       A          B          C        ALPHA      BETA     GAMMA        VOLUME
    3.27000    4.36000  500.00000    90.00000  90.00000  90.00000     14.257200

 COORDINATES OF THE EQUIVALENT ATOMS 
 (X AND Y IN FRACTIONARY UNITS, Z IN ANGSTROMS)

 N. ATOM EQUIV AT. N.          X                  Y                  Z

   1   1   1   15 P    -2.50000000000E-01 -4.21370000000E-01  3.70000000000E+00

   2   2   1   15 P     2.50000000000E-01 -7.86300000000E-02  3.70000000000E+00

   3   3   1   15 P     2.50000000000E-01  7.86300000000E-02  1.55000000000E+00

   4   4   1   15 P    -2.50000000000E-01  4.21370000000E-01  1.55000000000E+00

   5   5   1   15 P     2.50000000000E-01 -4.21370000000E-01 -1.55000000000E+00

   6   6   1   15 P    -2.50000000000E-01 -7.86300000000E-02 -1.55000000000E+00

   7   7   1   15 P    -2.50000000000E-01  7.86300000000E-02 -3.70000000000E+00

   8   8   1   15 P     2.50000000000E-01  4.21370000000E-01 -3.70000000000E+00

 NUMBER OF SYMMETRY OPERATORS         :    1
 *******************************************************************************
 * GEOMETRY EDITING - INPUT COORDINATES ARE GIVEN IN ANGSTROM         
 *******************************************************************************
 INFORMATION **** NEW DEFAULT **** FINALRUN 4 FOR GEOMETRY OPTIMIZATIONS
 INFORMATION **** NEW DEFAULT **** OPTGEOM OPTIMIZES BOTH ATOMIC COORDINATES AND CELL PARAMETERS
 INFORMATION **** NEW DEFAULT **** TOL. ON ATOMIC DISP TO REDEFINE REF. GEOMETRY: 0.8 Angs
 INFORMATION **** NEW DEFAULT **** N POINTS TO REDEFINE REF. GEOMETRY: N OF OPT DEGS OF FREEDOM
 INFORMATION **** NEW DEFAULT **** TOL. ON ENERGY TO REDEFINE REF. GEOMETRY: 10**-3*(5*N. ATOMS)

 *******************************************************************************
 * PARTIAL OPTIMIZATION - FRAGMENT OF    6 ATOMS -  INPUT LIST :

   1( 15)   2( 15)   4( 15)   6( 15)   7( 15)   8( 15)

 SYMMETRY MAY BE BROKEN


 FRAGMENT - OPTIMIZATION OF A FRAGMENT OF   6 ATOMS - INPUT DATA:
   1(Z= 15)    2(Z= 15)    4(Z= 15)    6(Z= 15)    7(Z= 15)    8(Z= 15) 

 IMPORTANT INFORMATION:
 THE COORDINATE SYSTEM ADOPTED IN THE OPTIMIZATION IS NOT IN
 GENERAL HOMOGENEOUS UNITS. FOR THIS REASON THE GRADIENT AND 
 HESSIAN MATRIX IN TERMS OF THIS SYSTEM ARE GIVEN WITHOUT
 UNITS. FOR MORE DETAILS SEE THE MANUAL.

 *******************************************************************************
 COMBINED CELL/ATOM OPTIMIZATION CONTROL

 INITIAL TRUST RADIUS         0.50000 MAXIMUM TRUST RADIUS               4.00000
 MAXIMUM GRADIENT COMPONENT   0.00045 MAXIMUM DISPLACEMENT COMPONENT     0.00180
 R.M.S. OF GRADIENT COMPONENT 0.00030 R.M.S. OF DISPLACEMENT COMPONENTS  0.00120
 THRESHOLD ON ENERGY CHANGE 0.100E-06 EXTRAPOLATING POLYNOMIAL ORDER           2
 MAXIMUM ALLOWED NUMBER OF STEPS   -1 SORTING OF ENERGY POINTS:               NO
 ANALYTICAL  GRADIENT                 HESSIAN UPDATING                      BFGS
 STEP SIZE NUMERICAL GRADIENT 0.00100
 INITIAL HESSIAN MATRIX: SCHLEGEL MODEL 2
 *******************************************************************************


 GCALCO - MAX INDICES DIRECT LATTICE VECTOR    96    72     0
 NO.OF VECTORS CREATED 6999 STARS 1368 RMAX   336.59955 BOHR

 GEOMETRY FOR WAVE FUNCTION - DIMENSIONALITY OF THE SYSTEM    2
 (NON PERIODIC DIRECTION: LATTICE PARAMETER FORMALLY SET TO 500)
 *******************************************************************************
 LATTICE PARAMETERS (ANGSTROMS AND DEGREES) - BOHR = 0.5291772083 ANGSTROM
 PRIMITIVE CELL
         A              B              C           ALPHA      BETA       GAMMA 
     3.27000000     4.36000000   500.00000000    90.000000  90.000000  90.000000
 *******************************************************************************
 ATOMS IN THE ASYMMETRIC UNIT    8 - ATOMS IN THE UNIT CELL:    8
     ATOM                 X/A                 Y/B             Z(ANGSTROM)
 *******************************************************************************
      1 T  15 P    -2.500000000000E-01 -4.213700000000E-01  3.700000000000E+00
      2 T  15 P     2.500000000000E-01 -7.863000000000E-02  3.700000000000E+00
      3 T  15 P     2.500000000000E-01  7.863000000000E-02  1.550000000000E+00
      4 T  15 P    -2.500000000000E-01  4.213700000000E-01  1.550000000000E+00
      5 T  15 P     2.500000000000E-01 -4.213700000000E-01 -1.550000000000E+00
      6 T  15 P    -2.500000000000E-01 -7.863000000000E-02 -1.550000000000E+00
      7 T  15 P    -2.500000000000E-01  7.863000000000E-02 -3.700000000000E+00
      8 T  15 P     2.500000000000E-01  4.213700000000E-01 -3.700000000000E+00

 T = ATOM BELONGING TO THE ASYMMETRIC UNIT

 ****    1 SYMMOPS - TRANSLATORS IN FRACTIONAL UNITS
 **** MATRICES AND TRANSLATORS IN THE CRYSTALLOGRAPHIC REFERENCE FRAME
   V INV                    ROTATION MATRICES                   TRANSLATORS
   1   1  1.00  0.00  0.00  0.00  1.00  0.00  0.00  0.00  1.00  0.00  0.00  0.00

 DIRECT LATTICE VECTORS CARTESIAN COMPONENTS (ANGSTROM)
          X                    Y                    Z
   0.327000000000E+01   0.200229751661E-15   0.000000000000E+00
   0.000000000000E+00   0.436000000000E+01   0.000000000000E+00
   0.000000000000E+00   0.000000000000E+00   0.500000000000E+03


 CARTESIAN COORDINATES - PRIMITIVE CELL
 *******************************************************************************
 *      ATOM          X(ANGSTROM)         Y(ANGSTROM)         Z(ANGSTROM)
 *******************************************************************************
    1    15 P    -8.175000000000E-01 -1.837173200000E+00  3.700000000000E+00
    2    15 P     8.175000000000E-01 -3.428268000000E-01  3.700000000000E+00
    3    15 P     8.175000000000E-01  3.428268000000E-01  1.550000000000E+00
    4    15 P    -8.175000000000E-01  1.837173200000E+00  1.550000000000E+00
    5    15 P     8.175000000000E-01 -1.837173200000E+00 -1.550000000000E+00
    6    15 P    -8.175000000000E-01 -3.428268000000E-01 -1.550000000000E+00
    7    15 P    -8.175000000000E-01  3.428268000000E-01 -3.700000000000E+00
    8    15 P     8.175000000000E-01  1.837173200000E+00 -3.700000000000E+00

 *******************************************************************************
 LOCAL ATOMIC FUNCTIONS BASIS SET
 *******************************************************************************
   ATOM   X(AU)   Y(AU)   Z(AU)  N. TYPE  EXPONENT  S COEF   P COEF   D/F/G COEF
 *******************************************************************************
   1 P   -1.545  -3.472   6.992
                                  1 S  
                                         5.243E+04 5.521E-04 0.000E+00 0.000E+00
                                         7.863E+03 4.268E-03 0.000E+00 0.000E+00
                                         1.790E+03 2.193E-02 0.000E+00 0.000E+00
                                         5.063E+02 8.567E-02 0.000E+00 0.000E+00
                                         1.646E+02 2.484E-01 0.000E+00 0.000E+00
                                         5.839E+01 4.634E-01 0.000E+00 0.000E+00
                                         2.164E+01 3.535E-01 0.000E+00 0.000E+00
                                  2 S  
                                         9.901E+01 2.190E-02 0.000E+00 0.000E+00
                                         3.055E+01 9.565E-02 0.000E+00 0.000E+00
                                         5.454E+00-2.945E-01 0.000E+00 0.000E+00
                                  3 S  
                                         2.648E+00 1.329E+00 0.000E+00 0.000E+00
                                         1.274E+00 6.611E-01 0.000E+00 0.000E+00
                           4-     7 SP 
                                         3.500E-01 1.000E+00 1.000E+00 0.000E+00
                           8-    11 SP 
                                         1.300E-01 1.000E+00 1.000E+00 0.000E+00
                          12-    14 P  
                                         4.723E+02 0.000E+00 2.571E-03 0.000E+00
                                         1.116E+02 0.000E+00 2.025E-02 0.000E+00
                                         3.545E+01 0.000E+00 9.158E-02 0.000E+00
                                         1.299E+01 0.000E+00 2.575E-01 0.000E+00
                                         5.049E+00 0.000E+00 4.286E-01 0.000E+00
                                         1.993E+00 0.000E+00 3.436E-01 0.000E+00
                          15-    17 P  
                                         6.964E-01 0.000E+00 1.000E+00 0.000E+00
                          18-    22 D  
                                         3.120E+00 0.000E+00 0.000E+00 2.000E-01
                                         6.480E-01 0.000E+00 0.000E+00 1.000E+00
                          23-    27 D  
                                         2.180E-01 0.000E+00 0.000E+00 1.000E+00
                          28-    34 F  
                                         4.520E-01 0.000E+00 0.000E+00 1.000E+00
   2 P    1.545  -0.648   6.992
   3 P    1.545   0.648   2.929
   4 P   -1.545   3.472   2.929
   5 P    1.545  -3.472  -2.929
   6 P   -1.545  -0.648  -2.929
   7 P   -1.545   0.648  -6.992
   8 P    1.545   3.472  -6.992
 INFORMATION **** SET_MPP **** PCRYSTAL CALCULATION
 INFORMATION **** READM2 **** NEW DEFAULT: FOCK/KS MATRIX MIXING SET TO 30 %
 INFORMATION **** READM2 **** NEW DEFAULT: FULL DIRECT SCF MODE
 INFORMATION **** READM2 **** NEW DEFAULT: COULOMB BIPOLAR BUFFER SET TO 32 Mb
 INFORMATION **** READM2 **** NEW DEFAULT: EXCHANGE BIPOLAR BUFFER SET TO 32 Mb

 *******************************************************************************
 NEW DEFAULT: DFT INTEGRATION GRID INCREASED TO XLGRID
 NEW DEFAULT: LEVEL SHIFTER 6 0
 IF THE SYSTEM IS A METAL USE KEYWORD NOSHIFT
 *******************************************************************************

 INFORMATION **** GRIMME **** GRIMME DISPERSION CORRECTION FOR ENER AND GRAD

 GRIMME DISPERSION CORRECTION PARAMETERS

 C6 COEFFICIENTS (KJ/MOL) AND VDW RADII (ANG)

                            ELEMENT  C6 COEF  RADIUS
                              P      7.840     1.705
 INFORMATION **** TOLINTEG **** COULOMB AND EXCHANGE SERIES TOLERANCES MODIFIED
 INFORMATION **** MAXCYCLE **** MAX NUMBER OF SCF CYCLES SET TO          60
 INFORMATION **** READM2 **** LEVEL SHIFTING DISABLED BY ANDERSON
 INFORMATION **** EXCHSIZE **** EXCHANGE BIPOLAR BUFFER SIZE SET TO    30000000
 INFORMATION **** BIPOSIZE **** COULOMB BIPOLAR BUFFER SET TO    30000000
 *******************************************************************************
 N. OF ATOMS PER CELL         8  COULOMB OVERLAP TOL         (T1) 10**   -8
 NUMBER OF SHELLS            80  COULOMB PENETRATION TOL     (T2) 10**   -8
 NUMBER OF AO               272  EXCHANGE OVERLAP TOL        (T3) 10**   -8
 N. OF ELECTRONS PER CELL   120  EXCHANGE PSEUDO OVP (F(G))  (T4) 10**  -20
 CORE ELECTRONS PER CELL     80  EXCHANGE PSEUDO OVP (P(G))  (T5) 10**  -50
 N. OF SYMMETRY OPERATORS     1  POLE ORDER IN MONO ZONE                  4
 *******************************************************************************
 TYPE OF CALCULATION :  RESTRICTED CLOSED SHELL
 KOHN-SHAM HAMILTONIAN

 (EXCHANGE)[CORRELATION] FUNCTIONAL:(PERDEW-BURKE-ERNZERHOF)[PERDEW-BURKE-ERNZERHOF]


 HYBRID EXCHANGE - PERCENTAGE OF FOCK EXCHANGE    25.0000

 CAPPA:IS1  8;IS2  8;IS3  1; K PTS MONK NET  34; SYMMOPS:K SPACE   2;G SPACE   1

 *******************************************************************************
 MAX NUMBER OF SCF CYCLES      60  CONVERGENCE ON DELTAP        10**-16
 WEIGHT OF F(I) IN F(I+1)      80% CONVERGENCE ON ENERGY        10**- 7
 SHRINK. FACT.(MONKH.)    8  8  1  NUMBER OF K POINTS IN THE IBZ     34
 SHRINKING FACTOR(GILAT NET)    8  NUMBER OF K POINTS(GILAT NET)     34
 *******************************************************************************
 *** K POINTS COORDINATES (OBLIQUE COORDINATES IN UNITS OF IS =  8)
   1-R(  0  0  0)   2-C(  1  0  0)   3-C(  2  0  0)   4-C(  3  0  0)
   5-R(  4  0  0)   6-C(  0  1  0)   7-C(  1  1  0)   8-C(  2  1  0)
   9-C(  3  1  0)  10-C(  4  1  0)  11-C(  5  1  0)  12-C(  6  1  0)
  13-C(  7  1  0)  14-C(  0  2  0)  15-C(  1  2  0)  16-C(  2  2  0)
  17-C(  3  2  0)  18-C(  4  2  0)  19-C(  5  2  0)  20-C(  6  2  0)
  21-C(  7  2  0)  22-C(  0  3  0)  23-C(  1  3  0)  24-C(  2  3  0)
  25-C(  3  3  0)  26-C(  4  3  0)  27-C(  5  3  0)  28-C(  6  3  0)
  29-C(  7  3  0)  30-R(  0  4  0)  31-C(  1  4  0)  32-C(  2  4  0)
  33-C(  3  4  0)  34-R(  4  4  0)

 DIRECT LATTICE VECTORS COMPON. (A.U.)     RECIP. LATTICE VECTORS COMPON. (A.U.) 
        X            Y            Z              X            Y            Z
    6.1794045    0.0000000    0.0000000      1.0167946    0.0000000    0.0000000
    0.0000000    8.2392059    0.0000000     -0.0000000    0.7625960    0.0000000
    0.0000000    0.0000000  944.8630670      0.0000000    0.0000000    0.0066498

 DISK SPACE FOR EIGENVECTORS (FTN 10)     4734976 REALS

 SYMMETRY ADAPTION OF THE BLOCH FUNCTIONS DISABLED
 TTTTTTTTTTTTTTTTTTTTTTTTTTTTTT gordsh1     TELAPSE        0.02 TCPU        0.01

 MATRIX SIZE: P(G) 2664880, F(G)  465216, P(G) IRR 1358312, F(G) IRR  473208
 MAX G-VECTOR INDEX FOR 1- AND 2-ELECTRON INTEGRALS 141

 TTTTTTTTTTTTTTTTTTTTTTTTTTTTTT INPUT       TELAPSE        0.02 TCPU        0.01

 NEIGHBORS OF THE NON-EQUIVALENT ATOMS

 N = NUMBER OF NEIGHBORS AT DISTANCE R
    ATOM  N     R/ANG      R/AU   NEIGHBORS (ATOM LABELS AND CELL INDICES)
   1 P    2     2.2150     4.1858    2 P    0 0 0    2 P   -1 0 0
   1 P    1     2.2567     4.2645    4 P    0-1 0
   1 P    2     3.2700     6.1794    1 P   -1 0 0    1 P    1 0 0
   1 P    2     3.2993     6.2347    2 P    0-1 0    2 P   -1-1 0
   1 P    4     3.4710     6.5593    3 P    0 0 0    3 P   -1 0 0    3 P    0-1 0
                                     3 P   -1-1 0
   1 P    2     3.9731     7.5081    4 P   -1-1 0    4 P    1-1 0

   2 P    2     2.2150     4.1858    1 P    0 0 0    1 P    1 0 0
   2 P    1     2.2567     4.2645    3 P    0 0 0
   2 P    2     3.2700     6.1794    2 P   -1 0 0    2 P    1 0 0
   2 P    2     3.2993     6.2347    1 P    0 1 0    1 P    1 1 0
   2 P    4     3.4710     6.5593    4 P    0 0 0    4 P    1 0 0    4 P    0-1 0
                                     4 P    1-1 0
   2 P    2     3.9731     7.5081    3 P    1 0 0    3 P   -1 0 0

   3 P    2     2.2150     4.1858    4 P    0 0 0    4 P    1 0 0
   3 P    1     2.2567     4.2645    2 P    0 0 0
   3 P    2     3.2700     6.1794    3 P   -1 0 0    3 P    1 0 0
   3 P    2     3.2993     6.2347    4 P    0-1 0    4 P    1-1 0
   3 P    4     3.4710     6.5593    1 P    0 0 0    1 P    1 0 0    1 P    0 1 0
                                     1 P    1 1 0
   3 P    2     3.5712     6.7486    6 P    0 0 0    6 P    1 0 0

   4 P    2     2.2150     4.1858    3 P    0 0 0    3 P   -1 0 0
   4 P    1     2.2567     4.2645    1 P    0 1 0
   4 P    2     3.2700     6.1794    4 P   -1 0 0    4 P    1 0 0
   4 P    2     3.2993     6.2347    3 P    0 1 0    3 P   -1 1 0
   4 P    4     3.4710     6.5593    2 P    0 0 0    2 P   -1 0 0    2 P    0 1 0
                                     2 P   -1 1 0
   4 P    2     3.5712     6.7486    5 P    0 1 0    5 P   -1 1 0

   5 P    2     2.2150     4.1858    6 P    0 0 0    6 P    1 0 0
   5 P    1     2.2567     4.2645    8 P    0-1 0
   5 P    2     3.2700     6.1794    5 P   -1 0 0    5 P    1 0 0
   5 P    2     3.2993     6.2347    6 P    0-1 0    6 P    1-1 0
   5 P    4     3.4710     6.5593    7 P    0 0 0    7 P    1 0 0    7 P    0-1 0
                                     7 P    1-1 0
   5 P    2     3.5712     6.7486    4 P    0-1 0    4 P    1-1 0

   6 P    2     2.2150     4.1858    5 P    0 0 0    5 P   -1 0 0
   6 P    1     2.2567     4.2645    7 P    0 0 0
   6 P    2     3.2700     6.1794    6 P   -1 0 0    6 P    1 0 0
   6 P    2     3.2993     6.2347    5 P    0 1 0    5 P   -1 1 0
   6 P    4     3.4710     6.5593    8 P    0 0 0    8 P   -1 0 0    8 P    0-1 0
                                     8 P   -1-1 0
   6 P    2     3.5712     6.7486    3 P    0 0 0    3 P   -1 0 0

   7 P    2     2.2150     4.1858    8 P    0 0 0    8 P   -1 0 0
   7 P    1     2.2567     4.2645    6 P    0 0 0
   7 P    2     3.2700     6.1794    7 P   -1 0 0    7 P    1 0 0
   7 P    2     3.2993     6.2347    8 P    0-1 0    8 P   -1-1 0
   7 P    4     3.4710     6.5593    5 P    0 0 0    5 P   -1 0 0    5 P    0 1 0
                                     5 P   -1 1 0
   7 P    2     3.9731     7.5081    6 P   -1 0 0    6 P    1 0 0

   8 P    2     2.2150     4.1858    7 P    0 0 0    7 P    1 0 0
   8 P    1     2.2567     4.2645    5 P    0 1 0
   8 P    2     3.2700     6.1794    8 P   -1 0 0    8 P    1 0 0
   8 P    2     3.2993     6.2347    7 P    0 1 0    7 P    1 1 0
   8 P    4     3.4710     6.5593    6 P    0 0 0    6 P    1 0 0    6 P    0 1 0
                                     6 P    1 1 0
   8 P    2     3.9731     7.5081    5 P    1 1 0    5 P   -1 1 0


 SYMMETRY ALLOWED ELASTIC DISTORTION 1
  0.7071068  0.0000000
  0.0000000  0.7071068

 SYMMETRY ALLOWED ELASTIC DISTORTION 2
  0.7071068  0.0000000
  0.0000000 -0.7071068

 SYMMETRY ALLOWED ELASTIC DISTORTION 3
  0.0000000  0.7071068
  0.7071068  0.0000000

 SYMMETRY ALLOWED INTERNAL DEGREE(S) OF FREEDOM:  18
 TTTTTTTTTTTTTTTTTTTTTTTTTTTTTT SYMM        TELAPSE        0.02 TCPU        0.01
 TTTTTTTTTTTTTTTTTTTTTTTTTTTTTT INT_SCREEN  TELAPSE        0.02 TCPU        0.01

 *******************************************************************************
 *                             OPTIMIZATION STARTS                             *
 *******************************************************************************
 RECLASIFICATION OF INDICES FOR INTEGRAL CALC ACCORDING TO DIFFERENT CRITERIA:
           FIXDELTE                  FIXDELTX              FIXDELTN
          0.10000000               0.80000000                 21
 DEFAULT MAX NUM OF POINTS  100
 *******************************************************************************

 *******************************************************************************
 COORDINATE AND CELL OPTIMIZATION - POINT    1
 INFORMATION **** EXCBUF **** EXCH. BIPO BUFFER: WORDS USED =     2740680

 DFT PARAMETERS

     ATOM       ELECTRONS   NET CHARGE   R(ANGSTROM)
   1  15  P      15.0000      0.0000     1.10000000

 SIZE OF GRID=     233468
 TTTTTTTTTTTTTTTTTTTTTTTTTTTTTT MAKE_GRID2  TELAPSE        0.94 TCPU        0.94
 BECKE WEIGHT FUNCTION
 RADSAFE =     2.00
 TOLERANCES - DENSITY:10**- 6; POTENTIAL:10**- 9; GRID WGT:10**-14

 RADIAL INTEGRATION  - INTERVALS (POINTS,UPPER LIMIT):            1( 75,  4.0*R)

 ANGULAR INTEGRATION - INTERVALS (ACCURACY LEVEL [N. POINTS] UPPER LIMIT):
  1(  4[  86]   0.2)  2(  8[ 194]   0.5)  3( 12[ 350]   0.9)  4( 16[ 974]   3.5)
  5( 12[ 350]9999.0)
 TTTTTTTTTTTTTTTTTTTTTTTTTTTTTT INT_CALC    TELAPSE        0.94 TCPU        0.94

 *******************************************************************************
 black p                                                                         
 CRYSTAL - SCF - TYPE OF CALCULATION :  RESTRICTED CLOSED SHELL
 *******************************************************************************

 CAPPA:IS1  8;IS2  8;IS3  1; K PTS MONK NET  34; SYMMOPS:K SPACE   2;G SPACE   1

 TTTTTTTTTTTTTTTTTTTTTTTTTTTTTT SDIK        TELAPSE        1.03 TCPU        1.02

 AAAAAAAAAAAAAAAAAAAAAAAAAAAAAAAAAAAAAAAAAAAAAAAAAAAAAAAAAAAAAAAAAAAAAAAAAAAAAAA
         ATOMIC WAVEFUNCTION(S)


 NUCLEAR CHARGE 15.0  SYMMETRY SPECIES            S    P
 N. ELECTRONS   15.0  NUMBER OF PRIMITIVE GTOS   14    9
                      NUMBER OF CONTRACTED GTOS   5    4
                      NUMBER OF CLOSED SHELLS     3    1
                      OPEN SHELL OCCUPATION       0    3

  ZNUC SCFIT  TOTAL HF ENERGY   KINETIC ENERGY   VIRIAL THEOREM ACCURACY
  15.0  10   -3.407065374E+02  3.406804136E+02 -2.000076681E+00  3.8E-06

 AAAAAAAAAAAAAAAAAAAAAAAAAAAAAAAAAAAAAAAAAAAAAAAAAAAAAAAAAAAAAAAAAAAAAAAAAAAAAAA

 CHARGE NORMALIZATION FACTOR   1.00000000
 TOTAL ATOMIC CHARGES:
  15.0000000  15.0000000  15.0000000  15.0000000  15.0000000  15.0000000
  15.0000000  15.0000000
 TTTTTTTTTTTTTTTTTTTTTTTTTTTTTT MOQGAD      TELAPSE        1.07 TCPU        1.07
 TTTTTTTTTTTTTTTTTTTTTTTTTTTTTT SHELLXN     TELAPSE      204.81 TCPU      204.78
 TTTTTTTTTTTTTTTTTTTTTTTTTTTTTT MONMO3      TELAPSE      229.18 TCPU      229.15
 NUMERICALLY INTEGRATED DENSITY    120.0000123578
 TTTTTTTTTTTTTTTTTTTTTTTTTTTTTT NUMDFT      TELAPSE      229.99 TCPU      229.95
 CYC   0 ETOT(AU) -2.731758462418E+03 DETOT -2.73E+03 tst  0.00E+00 PX  1.00E+00
 TTTTTTTTTTTTTTTTTTTTTTTTTTTTTT FDIK        TELAPSE      231.18 TCPU      231.14
 INSULATING STATE
 TOP OF VALENCE BANDS -    BAND     60; K    1; EIG -1.6198532E-01 AU
 BOTTOM OF VIRTUAL BANDS - BAND     61; K    1; EIG -1.5309444E-01 AU
 DIRECT ENERGY BAND GAP:   0.2419 eV
 TTTTTTTTTTTTTTTTTTTTTTTTTTTTTT PDIG        TELAPSE      231.24 TCPU      231.20
 CHARGE NORMALIZATION FACTOR   1.00000000
 TOTAL ATOMIC CHARGES:
  15.0020889  15.0020901  14.9979115  14.9979094  14.9979101  14.9979110
  15.0020905  15.0020884
 TTTTTTTTTTTTTTTTTTTTTTTTTTTTTT MOQGAD      TELAPSE      231.25 TCPU      231.21
 TTTTTTTTTTTTTTTTTTTTTTTTTTTTTT SHELLXN     TELAPSE      446.43 TCPU      446.39
 TTTTTTTTTTTTTTTTTTTTTTTTTTTTTT MONMO3      TELAPSE      471.87 TCPU      471.83
 NUMERICALLY INTEGRATED DENSITY    120.0000126054
 TTTTTTTTTTTTTTTTTTTTTTTTTTTTTT NUMDFT      TELAPSE      475.00 TCPU      474.97
 CYC   1 ETOT(AU) -2.730035849650E+03 DETOT  1.72E+00 tst  0.00E+00 PX  1.00E+00
 TTTTTTTTTTTTTTTTTTTTTTTTTTTTTT FDIK        TELAPSE      475.41 TCPU      475.37
 INSULATING STATE
 TOP OF VALENCE BANDS -    BAND     60; K    1; EIG -1.7050899E-01 AU
 BOTTOM OF VIRTUAL BANDS - BAND     61; K    1; EIG -1.5502698E-01 AU
 DIRECT ENERGY BAND GAP:   0.4213 eV
 TTTTTTTTTTTTTTTTTTTTTTTTTTTTTT PDIG        TELAPSE      475.48 TCPU      475.44
 CHARGE NORMALIZATION FACTOR   1.00000000
 TOTAL ATOMIC CHARGES:
  14.9930435  14.9930483  15.0069639  15.0069439  15.0069546  15.0069518
  14.9930477  14.9930463
 TTTTTTTTTTTTTTTTTTTTTTTTTTTTTT MOQGAD      TELAPSE      475.50 TCPU      475.46
 TTTTTTTTTTTTTTTTTTTTTTTTTTTTTT SHELLXN     TELAPSE      692.26 TCPU      692.22
 TTTTTTTTTTTTTTTTTTTTTTTTTTTTTT MONMO3      TELAPSE      716.20 TCPU      716.16
 NUMERICALLY INTEGRATED DENSITY    120.0000130534
 TTTTTTTTTTTTTTTTTTTTTTTTTTTTTT NUMDFT      TELAPSE      718.99 TCPU      718.95
 CYC   2 ETOT(AU) -2.730040876474E+03 DETOT -5.03E-03 tst  5.39E-05 PX  7.04E-03
 TTTTTTTTTTTTTTTTTTTTTTTTTTTTTT FDIK        TELAPSE      719.34 TCPU      719.31
 INSULATING STATE
 TOP OF VALENCE BANDS -    BAND     60; K    1; EIG -1.7390252E-01 AU
 BOTTOM OF VIRTUAL BANDS - BAND     61; K    1; EIG -1.5298148E-01 AU
 DIRECT ENERGY BAND GAP:   0.5693 eV
 TTTTTTTTTTTTTTTTTTTTTTTTTTTTTT PDIG        TELAPSE      719.41 TCPU      719.37
 CHARGE NORMALIZATION FACTOR   1.00000000
 TOTAL ATOMIC CHARGES:
  14.9944049  14.9943828  15.0056214  15.0055905  15.0056191  15.0055939
  14.9944057  14.9943816
 TTTTTTTTTTTTTTTTTTTTTTTTTTTTTT MOQGAD      TELAPSE      719.42 TCPU      719.38
 TTTTTTTTTTTTTTTTTTTTTTTTTTTTTT SHELLXN     TELAPSE      936.32 TCPU      936.29
 TTTTTTTTTTTTTTTTTTTTTTTTTTTTTT MONMO3      TELAPSE      960.02 TCPU      959.99
 NUMERICALLY INTEGRATED DENSITY    120.0000132225
 TTTTTTTTTTTTTTTTTTTTTTTTTTTTTT NUMDFT      TELAPSE      962.85 TCPU      962.81
 CYC   3 ETOT(AU) -2.730042789996E+03 DETOT -1.91E-03 tst  3.24E-05 PX  1.83E-03
 ANDERSON MIX: BETA=  -1.397484106577E+00
 TTTTTTTTTTTTTTTTTTTTTTTTTTTTTT FDIK        TELAPSE      963.21 TCPU      963.17
 INSULATING STATE
 TOP OF VALENCE BANDS -    BAND     60; K    1; EIG -1.8039349E-01 AU
 BOTTOM OF VIRTUAL BANDS - BAND     61; K    1; EIG -1.4850895E-01 AU
 DIRECT ENERGY BAND GAP:   0.8676 eV
 TTTTTTTTTTTTTTTTTTTTTTTTTTTTTT PDIG        TELAPSE      963.27 TCPU      963.23
 CHARGE NORMALIZATION FACTOR   1.00000000
 TOTAL ATOMIC CHARGES:
  14.9904305  14.9904386  15.0095681  15.0095624  15.0095718  15.0095569
  14.9904399  14.9904318
 TTTTTTTTTTTTTTTTTTTTTTTTTTTTTT MOQGAD      TELAPSE      963.28 TCPU      963.24
 TTTTTTTTTTTTTTTTTTTTTTTTTTTTTT SHELLXN     TELAPSE     1178.38 TCPU     1178.34
 TTTTTTTTTTTTTTTTTTTTTTTTTTTTTT MONMO3      TELAPSE     1203.93 TCPU     1203.90
 NUMERICALLY INTEGRATED DENSITY    120.0000134294
 TTTTTTTTTTTTTTTTTTTTTTTTTTTTTT NUMDFT      TELAPSE     1206.76 TCPU     1206.72
 CYC   4 ETOT(AU) -2.730044570029E+03 DETOT -1.78E-03 tst  1.16E-04 PX  4.09E-03
 ANDERSON MIX: BETA=   5.201304440718E-01
 TTTTTTTTTTTTTTTTTTTTTTTTTTTTTT FDIK        TELAPSE     1207.13 TCPU     1207.09
 INSULATING STATE
 TOP OF VALENCE BANDS -    BAND     60; K    1; EIG -1.7843317E-01 AU
 BOTTOM OF VIRTUAL BANDS - BAND     61; K    1; EIG -1.4860806E-01 AU
 DIRECT ENERGY BAND GAP:   0.8116 eV
 TTTTTTTTTTTTTTTTTTTTTTTTTTTTTT PDIG        TELAPSE     1207.19 TCPU     1207.15
 CHARGE NORMALIZATION FACTOR   1.00000000
 TOTAL ATOMIC CHARGES:
  14.9925188  14.9925148  15.0074836  15.0074827  15.0074818  15.0074833
  14.9925216  14.9925135
 TTTTTTTTTTTTTTTTTTTTTTTTTTTTTT MOQGAD      TELAPSE     1207.20 TCPU     1207.16
 TTTTTTTTTTTTTTTTTTTTTTTTTTTTTT SHELLXN     TELAPSE     1422.50 TCPU     1422.46
 TTTTTTTTTTTTTTTTTTTTTTTTTTTTTT MONMO3      TELAPSE     1448.01 TCPU     1447.97
 NUMERICALLY INTEGRATED DENSITY    120.0000133444
 TTTTTTTTTTTTTTTTTTTTTTTTTTTTTT NUMDFT      TELAPSE     1450.82 TCPU     1450.79
 CYC   5 ETOT(AU) -2.730044365972E+03 DETOT  2.04E-04 tst  2.58E-06 PX  1.30E-03
 ANDERSON MIX: BETA=  -8.495449132268E-01
 TTTTTTTTTTTTTTTTTTTTTTTTTTTTTT FDIK        TELAPSE     1451.18 TCPU     1451.15
 INSULATING STATE
 TOP OF VALENCE BANDS -    BAND     60; K    1; EIG -1.7888580E-01 AU
 BOTTOM OF VIRTUAL BANDS - BAND     61; K    1; EIG -1.4743511E-01 AU
 DIRECT ENERGY BAND GAP:   0.8558 eV
 TTTTTTTTTTTTTTTTTTTTTTTTTTTTTT PDIG        TELAPSE     1451.25 TCPU     1451.21
 CHARGE NORMALIZATION FACTOR   1.00000000
 TOTAL ATOMIC CHARGES:
  14.9919721  14.9919744  15.0080281  15.0080253  15.0080272  15.0080269
  14.9919730  14.9919730
 TTTTTTTTTTTTTTTTTTTTTTTTTTTTTT MOQGAD      TELAPSE     1451.26 TCPU     1451.22
 TTTTTTTTTTTTTTTTTTTTTTTTTTTTTT SHELLXN     TELAPSE     1666.61 TCPU     1666.57
 TTTTTTTTTTTTTTTTTTTTTTTTTTTTTT MONMO3      TELAPSE     1691.94 TCPU     1691.90
 NUMERICALLY INTEGRATED DENSITY    120.0000133245
 TTTTTTTTTTTTTTTTTTTTTTTTTTTTTT NUMDFT      TELAPSE     1694.77 TCPU     1694.73
 CYC   6 ETOT(AU) -2.730044532791E+03 DETOT -1.67E-04 tst  3.22E-06 PX  1.07E-03
 ANDERSON MIX: BETA=  -6.820663111334E+00
 TTTTTTTTTTTTTTTTTTTTTTTTTTTTTT FDIK        TELAPSE     1695.13 TCPU     1695.09
 INSULATING STATE
 TOP OF VALENCE BANDS -    BAND     60; K    1; EIG -1.8190771E-01 AU
 BOTTOM OF VIRTUAL BANDS - BAND     61; K    1; EIG -1.3851743E-01 AU
 DIRECT ENERGY BAND GAP:   1.1807 eV
 TTTTTTTTTTTTTTTTTTTTTTTTTTTTTT PDIG        TELAPSE     1695.19 TCPU     1695.16
 CHARGE NORMALIZATION FACTOR   1.00000000
 TOTAL ATOMIC CHARGES:
  14.9932801  14.9932752  15.0067177  15.0067271  15.0067217  15.0067248
  14.9932802  14.9932732
 TTTTTTTTTTTTTTTTTTTTTTTTTTTTTT MOQGAD      TELAPSE     1695.21 TCPU     1695.17
 TTTTTTTTTTTTTTTTTTTTTTTTTTTTTT SHELLXN     TELAPSE     1912.16 TCPU     1912.12
 TTTTTTTTTTTTTTTTTTTTTTTTTTTTTT MONMO3      TELAPSE     1936.77 TCPU     1936.73
 NUMERICALLY INTEGRATED DENSITY    120.0000132292
 TTTTTTTTTTTTTTTTTTTTTTTTTTTTTT NUMDFT      TELAPSE     1939.59 TCPU     1939.55
 CYC   7 ETOT(AU) -2.730045271698E+03 DETOT -7.39E-04 tst  1.48E-04 PX  6.96E-03
 ANDERSON MIX: BETA=   2.137664307204E-01
 TTTTTTTTTTTTTTTTTTTTTTTTTTTTTT FDIK        TELAPSE     1939.96 TCPU     1939.92
 INSULATING STATE
 TOP OF VALENCE BANDS -    BAND     60; K    1; EIG -1.8234010E-01 AU
 BOTTOM OF VIRTUAL BANDS - BAND     61; K    1; EIG -1.4033256E-01 AU
 DIRECT ENERGY BAND GAP:   1.1431 eV
 TTTTTTTTTTTTTTTTTTTTTTTTTTTTTT PDIG        TELAPSE     1940.03 TCPU     1939.99
 CHARGE NORMALIZATION FACTOR   1.00000000
 TOTAL ATOMIC CHARGES:
  14.9916721  14.9916761  15.0083263  15.0083255  15.0083242  15.0083279
  14.9916739  14.9916740
 TTTTTTTTTTTTTTTTTTTTTTTTTTTTTT MOQGAD      TELAPSE     1940.04 TCPU     1940.00
 TTTTTTTTTTTTTTTTTTTTTTTTTTTTTT SHELLXN     TELAPSE     2155.07 TCPU     2155.03
 TTTTTTTTTTTTTTTTTTTTTTTTTTTTTT MONMO3      TELAPSE     2180.92 TCPU     2180.88
 NUMERICALLY INTEGRATED DENSITY    120.0000132833
 TTTTTTTTTTTTTTTTTTTTTTTTTTTTTT NUMDFT      TELAPSE     2184.74 TCPU     2184.70
 CYC   8 ETOT(AU) -2.730045259662E+03 DETOT  1.20E-05 tst  1.77E-06 PX  1.38E-03
 ANDERSON MIX: BETA=   3.194381785360E-01
 TTTTTTTTTTTTTTTTTTTTTTTTTTTTTT FDIK        TELAPSE     2185.15 TCPU     2185.11
 INSULATING STATE
 TOP OF VALENCE BANDS -    BAND     60; K    1; EIG -1.8284965E-01 AU
 BOTTOM OF VIRTUAL BANDS - BAND     61; K    1; EIG -1.3951875E-01 AU
 DIRECT ENERGY BAND GAP:   1.1791 eV
 TTTTTTTTTTTTTTTTTTTTTTTTTTTTTT PDIG        TELAPSE     2185.22 TCPU     2185.18
 CHARGE NORMALIZATION FACTOR   1.00000000
 TOTAL ATOMIC CHARGES:
  14.9917332  14.9917364  15.0082666  15.0082637  15.0082646  15.0082659
  14.9917344  14.9917350
 TTTTTTTTTTTTTTTTTTTTTTTTTTTTTT MOQGAD      TELAPSE     2185.24 TCPU     2185.20
 TTTTTTTTTTTTTTTTTTTTTTTTTTTTTT SHELLXN     TELAPSE     2402.06 TCPU     2402.02
 TTTTTTTTTTTTTTTTTTTTTTTTTTTTTT MONMO3      TELAPSE     2426.05 TCPU     2426.01
 NUMERICALLY INTEGRATED DENSITY    120.0000132859
 TTTTTTTTTTTTTTTTTTTTTTTTTTTTTT NUMDFT      TELAPSE     2428.88 TCPU     2428.85
 CYC   9 ETOT(AU) -2.730045303251E+03 DETOT -4.36E-05 tst  1.48E-06 PX  6.62E-04
 ANDERSON MIX: BETA=  -2.333380596161E+00
 TTTTTTTTTTTTTTTTTTTTTTTTTTTTTT FDIK        TELAPSE     2429.25 TCPU     2429.21
 INSULATING STATE
 TOP OF VALENCE BANDS -    BAND     60; K    1; EIG -1.8420077E-01 AU
 BOTTOM OF VIRTUAL BANDS - BAND     61; K    1; EIG -1.3759697E-01 AU
 DIRECT ENERGY BAND GAP:   1.2682 eV
 TTTTTTTTTTTTTTTTTTTTTTTTTTTTTT PDIG        TELAPSE     2429.31 TCPU     2429.27
 CHARGE NORMALIZATION FACTOR   1.00000000
 TOTAL ATOMIC CHARGES:
  14.9914553  14.9914602  15.0085470  15.0085376  15.0085448  15.0085392
  14.9914581  14.9914578
 TTTTTTTTTTTTTTTTTTTTTTTTTTTTTT MOQGAD      TELAPSE     2429.32 TCPU     2429.28
 TTTTTTTTTTTTTTTTTTTTTTTTTTTTTT SHELLXN     TELAPSE     2644.68 TCPU     2644.65
 TTTTTTTTTTTTTTTTTTTTTTTTTTTTTT MONMO3      TELAPSE     2670.18 TCPU     2670.14
 NUMERICALLY INTEGRATED DENSITY    120.0000132913
 TTTTTTTTTTTTTTTTTTTTTTTTTTTTTT NUMDFT      TELAPSE     2672.99 TCPU     2672.95
 CYC  10 ETOT(AU) -2.730045358299E+03 DETOT -5.50E-05 tst  9.15E-06 PX  1.69E-03
 ANDERSON MIX: BETA=  -1.998351112607E-01
 TTTTTTTTTTTTTTTTTTTTTTTTTTTTTT FDIK        TELAPSE     2673.37 TCPU     2673.33
 INSULATING STATE
 TOP OF VALENCE BANDS -    BAND     60; K    1; EIG -1.8442586E-01 AU
 BOTTOM OF VIRTUAL BANDS - BAND     61; K    1; EIG -1.3713766E-01 AU
 DIRECT ENERGY BAND GAP:   1.2868 eV
 TTTTTTTTTTTTTTTTTTTTTTTTTTTTTT PDIG        TELAPSE     2673.43 TCPU     2673.39
 CHARGE NORMALIZATION FACTOR   1.00000000
 TOTAL ATOMIC CHARGES:
  14.9915292  14.9915292  15.0084717  15.0084698  15.0084702  15.0084718
  14.9915303  14.9915278
 TTTTTTTTTTTTTTTTTTTTTTTTTTTTTT MOQGAD      TELAPSE     2673.44 TCPU     2673.40
 TTTTTTTTTTTTTTTTTTTTTTTTTTTTTT SHELLXN     TELAPSE     2888.99 TCPU     2888.94
 TTTTTTTTTTTTTTTTTTTTTTTTTTTTTT MONMO3      TELAPSE     2914.26 TCPU     2914.22
 NUMERICALLY INTEGRATED DENSITY    120.0000132875
 TTTTTTTTTTTTTTTTTTTTTTTTTTTTTT NUMDFT      TELAPSE     2917.08 TCPU     2917.04
 CYC  11 ETOT(AU) -2.730045361633E+03 DETOT -3.33E-06 tst  4.88E-07 PX  3.98E-04
 ANDERSON MIX: BETA=   9.106242060949E-02
 TTTTTTTTTTTTTTTTTTTTTTTTTTTTTT FDIK        TELAPSE     2917.47 TCPU     2917.43
 INSULATING STATE
 TOP OF VALENCE BANDS -    BAND     60; K    1; EIG -1.8441718E-01 AU
 BOTTOM OF VIRTUAL BANDS - BAND     61; K    1; EIG -1.3715191E-01 AU
 DIRECT ENERGY BAND GAP:   1.2862 eV
 TTTTTTTTTTTTTTTTTTTTTTTTTTTTTT PDIG        TELAPSE     2917.53 TCPU     2917.49
 CHARGE NORMALIZATION FACTOR   1.00000000
 TOTAL ATOMIC CHARGES:
  14.9915094  14.9915106  15.0084908  15.0084892  15.0084893  15.0084908
  14.9915111  14.9915088
 TTTTTTTTTTTTTTTTTTTTTTTTTTTTTT MOQGAD      TELAPSE     2917.55 TCPU     2917.51
 TTTTTTTTTTTTTTTTTTTTTTTTTTTTTT SHELLXN     TELAPSE     3132.92 TCPU     3132.88
 TTTTTTTTTTTTTTTTTTTTTTTTTTTTTT MONMO3      TELAPSE     3158.37 TCPU     3158.32
 NUMERICALLY INTEGRATED DENSITY    120.0000132856
 TTTTTTTTTTTTTTTTTTTTTTTTTTTTTT NUMDFT      TELAPSE     3161.18 TCPU     3161.13
 CYC  12 ETOT(AU) -2.730045361978E+03 DETOT -3.45E-07 tst  1.78E-09 PX  2.61E-05
 ANDERSON MIX: BETA=  -7.678201977365E-01
 TTTTTTTTTTTTTTTTTTTTTTTTTTTTTT FDIK        TELAPSE     3161.54 TCPU     3161.50
 INSULATING STATE
 TOP OF VALENCE BANDS -    BAND     60; K    1; EIG -1.8442423E-01 AU
 BOTTOM OF VIRTUAL BANDS - BAND     61; K    1; EIG -1.3713816E-01 AU
 DIRECT ENERGY BAND GAP:   1.2867 eV
 TTTTTTTTTTTTTTTTTTTTTTTTTTTTTT PDIG        TELAPSE     3161.60 TCPU     3161.56
 CHARGE NORMALIZATION FACTOR   1.00000000
 TOTAL ATOMIC CHARGES:
  14.9915236  14.9915246  15.0084767  15.0084750  15.0084753  15.0084765
  14.9915252  14.9915230
 TTTTTTTTTTTTTTTTTTTTTTTTTTTTTT MOQGAD      TELAPSE     3161.61 TCPU     3161.57
 TTTTTTTTTTTTTTTTTTTTTTTTTTTTTT SHELLXN     TELAPSE     3376.92 TCPU     3376.87
 TTTTTTTTTTTTTTTTTTTTTTTTTTTTTT MONMO3      TELAPSE     3402.41 TCPU     3402.37
 NUMERICALLY INTEGRATED DENSITY    120.0000132833
 TTTTTTTTTTTTTTTTTTTTTTTTTTTTTT NUMDFT      TELAPSE     3405.22 TCPU     3405.18
 CYC  13 ETOT(AU) -2.730045362498E+03 DETOT -5.20E-07 tst  1.32E-08 PX  5.72E-05
 ANDERSON MIX: BETA=   1.709203184005E-01
 TTTTTTTTTTTTTTTTTTTTTTTTTTTTTT FDIK        TELAPSE     3405.61 TCPU     3405.56
 INSULATING STATE
 TOP OF VALENCE BANDS -    BAND     60; K    1; EIG -1.8444251E-01 AU
 BOTTOM OF VIRTUAL BANDS - BAND     61; K    1; EIG -1.3712647E-01 AU
 DIRECT ENERGY BAND GAP:   1.2875 eV
 TTTTTTTTTTTTTTTTTTTTTTTTTTTTTT PDIG        TELAPSE     3405.67 TCPU     3405.63
 CHARGE NORMALIZATION FACTOR   1.00000000
 TOTAL ATOMIC CHARGES:
  14.9915147  14.9915157  15.0084857  15.0084838  15.0084843  15.0084855
  14.9915162  14.9915141
 TTTTTTTTTTTTTTTTTTTTTTTTTTTTTT MOQGAD      TELAPSE     3405.68 TCPU     3405.64
 TTTTTTTTTTTTTTTTTTTTTTTTTTTTTT SHELLXN     TELAPSE     3621.40 TCPU     3621.36
 TTTTTTTTTTTTTTTTTTTTTTTTTTTTTT MONMO3      TELAPSE     3646.81 TCPU     3646.77
 NUMERICALLY INTEGRATED DENSITY    120.0000132830
 TTTTTTTTTTTTTTTTTTTTTTTTTTTTTT NUMDFT      TELAPSE     3649.62 TCPU     3649.57
 CYC  14 ETOT(AU) -2.730045362646E+03 DETOT -1.48E-07 tst  2.95E-09 PX  2.30E-05
 ANDERSON MIX: BETA=  -1.165662272918E+00
 TTTTTTTTTTTTTTTTTTTTTTTTTTTTTT FDIK        TELAPSE     3649.97 TCPU     3649.93
 INSULATING STATE
 TOP OF VALENCE BANDS -    BAND     60; K    1; EIG -1.8447350E-01 AU
 BOTTOM OF VIRTUAL BANDS - BAND     61; K    1; EIG -1.3709928E-01 AU
 DIRECT ENERGY BAND GAP:   1.2891 eV
 TTTTTTTTTTTTTTTTTTTTTTTTTTTTTT PDIG        TELAPSE     3650.03 TCPU     3649.99
 CHARGE NORMALIZATION FACTOR   1.00000000
 TOTAL ATOMIC CHARGES:
  14.9915150  14.9915162  15.0084853  15.0084834  15.0084839  15.0084850
  14.9915166  14.9915145
 TTTTTTTTTTTTTTTTTTTTTTTTTTTTTT MOQGAD      TELAPSE     3650.05 TCPU     3650.00
 TTTTTTTTTTTTTTTTTTTTTTTTTTTTTT SHELLXN     TELAPSE     3865.42 TCPU     3865.37
 TTTTTTTTTTTTTTTTTTTTTTTTTTTTTT MONMO3      TELAPSE     3891.12 TCPU     3891.08
 NUMERICALLY INTEGRATED DENSITY    120.0000132822
 TTTTTTTTTTTTTTTTTTTTTTTTTTTTTT NUMDFT      TELAPSE     3893.96 TCPU     3893.91
 CYC  15 ETOT(AU) -2.730045362952E+03 DETOT -3.06E-07 tst  1.35E-08 PX  5.01E-05
 ANDERSON MIX: BETA=  -6.967344855227E-01
 TTTTTTTTTTTTTTTTTTTTTTTTTTTTTT FDIK        TELAPSE     3894.32 TCPU     3894.27
 INSULATING STATE
 TOP OF VALENCE BANDS -    BAND     60; K    1; EIG -1.8450483E-01 AU
 BOTTOM OF VIRTUAL BANDS - BAND     61; K    1; EIG -1.3707587E-01 AU
 DIRECT ENERGY BAND GAP:   1.2906 eV
 TTTTTTTTTTTTTTTTTTTTTTTTTTTTTT PDIG        TELAPSE     3894.38 TCPU     3894.33
 CHARGE NORMALIZATION FACTOR   1.00000000
 TOTAL ATOMIC CHARGES:
  14.9915088  14.9915098  15.0084917  15.0084897  15.0084902  15.0084913
  14.9915103  14.9915082
 TTTTTTTTTTTTTTTTTTTTTTTTTTTTTT MOQGAD      TELAPSE     3894.39 TCPU     3894.35
 TTTTTTTTTTTTTTTTTTTTTTTTTTTTTT SHELLXN     TELAPSE     4109.43 TCPU     4109.39
 TTTTTTTTTTTTTTTTTTTTTTTTTTTTTT MONMO3      TELAPSE     4135.19 TCPU     4135.15
 NUMERICALLY INTEGRATED DENSITY    120.0000132815
 TTTTTTTTTTTTTTTTTTTTTTTTTTTTTT NUMDFT      TELAPSE     4138.02 TCPU     4137.97
 CYC  16 ETOT(AU) -2.730045363208E+03 DETOT -2.57E-07 tst  1.30E-08 PX  4.60E-05
 ANDERSON MIX: BETA=  -1.198931079350E+00
 TTTTTTTTTTTTTTTTTTTTTTTTTTTTTT FDIK        TELAPSE     4138.38 TCPU     4138.34
 INSULATING STATE
 TOP OF VALENCE BANDS -    BAND     60; K    1; EIG -1.8454250E-01 AU
 BOTTOM OF VIRTUAL BANDS - BAND     61; K    1; EIG -1.3704537E-01 AU
 DIRECT ENERGY BAND GAP:   1.2925 eV
 TTTTTTTTTTTTTTTTTTTTTTTTTTTTTT PDIG        TELAPSE     4138.45 TCPU     4138.40
 CHARGE NORMALIZATION FACTOR   1.00000000
 TOTAL ATOMIC CHARGES:
  14.9915074  14.9915086  15.0084930  15.0084909  15.0084914  15.0084927
  14.9915089  14.9915070
 TTTTTTTTTTTTTTTTTTTTTTTTTTTTTT MOQGAD      TELAPSE     4138.46 TCPU     4138.41
 TTTTTTTTTTTTTTTTTTTTTTTTTTTTTT SHELLXN     TELAPSE     4354.86 TCPU     4354.81
 TTTTTTTTTTTTTTTTTTTTTTTTTTTTTT MONMO3      TELAPSE     4379.27 TCPU     4379.22
 NUMERICALLY INTEGRATED DENSITY    120.0000132805
 TTTTTTTTTTTTTTTTTTTTTTTTTTTTTT NUMDFT      TELAPSE     4382.08 TCPU     4382.04
 CYC  17 ETOT(AU) -2.730045363481E+03 DETOT -2.73E-07 tst  2.06E-08 PX  5.53E-05
 ANDERSON MIX: BETA=  -2.726232287154E-01
 TTTTTTTTTTTTTTTTTTTTTTTTTTTTTT FDIK        TELAPSE     4382.49 TCPU     4382.44
 INSULATING STATE
 TOP OF VALENCE BANDS -    BAND     60; K    1; EIG -1.8455347E-01 AU
 BOTTOM OF VIRTUAL BANDS - BAND     61; K    1; EIG -1.3703814E-01 AU
 DIRECT ENERGY BAND GAP:   1.2930 eV
 TTTTTTTTTTTTTTTTTTTTTTTTTTTTTT PDIG        TELAPSE     4382.55 TCPU     4382.50
 CHARGE NORMALIZATION FACTOR   1.00000000
 TOTAL ATOMIC CHARGES:
  14.9915045  14.9915057  15.0084960  15.0084938  15.0084945  15.0084954
  14.9915060  14.9915041
 TTTTTTTTTTTTTTTTTTTTTTTTTTTTTT MOQGAD      TELAPSE     4382.56 TCPU     4382.52
 TTTTTTTTTTTTTTTTTTTTTTTTTTTTTT SHELLXN     TELAPSE     4597.60 TCPU     4597.55
 TTTTTTTTTTTTTTTTTTTTTTTTTTTTTT MONMO3      TELAPSE     4623.32 TCPU     4623.28
 NUMERICALLY INTEGRATED DENSITY    120.0000132804
 TTTTTTTTTTTTTTTTTTTTTTTTTTTTTT NUMDFT      TELAPSE     4626.14 TCPU     4626.10
 CYC  18 ETOT(AU) -2.730045363540E+03 DETOT -5.93E-08 tst  1.55E-09 PX  1.43E-05
 ANDERSON MIX: BETA=  -2.750187101218E-01
 TTTTTTTTTTTTTTTTTTTTTTTTTTTTTT FDIK        TELAPSE     4626.53 TCPU     4626.48
 INSULATING STATE
 TOP OF VALENCE BANDS -    BAND     60; K    1; EIG -1.8455552E-01 AU
 BOTTOM OF VIRTUAL BANDS - BAND     61; K    1; EIG -1.3703627E-01 AU
 DIRECT ENERGY BAND GAP:   1.2931 eV
 TTTTTTTTTTTTTTTTTTTTTTTTTTTTTT PDIG        TELAPSE     4626.59 TCPU     4626.54
 CHARGE NORMALIZATION FACTOR   1.00000000
 TOTAL ATOMIC CHARGES:
  14.9915051  14.9915062  15.0084955  15.0084932  15.0084940  15.0084949
  14.9915065  14.9915046
 TTTTTTTTTTTTTTTTTTTTTTTTTTTTTT MOQGAD      TELAPSE     4626.60 TCPU     4626.55
 TTTTTTTTTTTTTTTTTTTTTTTTTTTTTT SHELLXN     TELAPSE     4841.67 TCPU     4841.62

 ::: DIPOLE MOMENT ALONG NON PERIODIC DIRECTIONS:
 ::: A.U.     (Z) -9.04835E-08
 ::: DEBYE         2.29986E-07

 +++ ENERGIES IN A.U. +++
 ::: EXT EL-POLE                                  -8.2545320040845E+03
 ::: EXT EL-SPHEROPOLE                             0.0000000000000E+00
 ::: BIELET ZONE E-E                               3.4462293486926E+03
 ::: TOTAL E-E                                    -4.8083026553919E+03
 ::: TOTAL E-N + N-E                               5.4834553772253E+03
 ::: TOTAL N-N                                    -5.9876612470423E+03
 ::: KINETIC ENERGY                                2.7223687009800E+03
 ::: PSEUDO TOTAL   ENERGY                        -2.5901398242289E+03
 ::: VIRIAL COEFFICIENT                            1.0248901015638E+00
 TTTTTTTTTTTTTTTTTTTTTTTTTTTTTT MONMO3      TELAPSE     4867.40 TCPU     4867.35
 NUMERICALLY INTEGRATED DENSITY    120.0000132803
 TTTTTTTTTTTTTTTTTTTTTTTTTTTTTT NUMDFT      TELAPSE     4871.25 TCPU     4871.20
 CYC  19 ETOT(AU) -2.730045363549E+03 DETOT -8.86E-09 tst  8.69E-11 PX  1.43E-05

 == SCF ENDED - CONVERGENCE ON ENERGY      E(AU) -2.7300453635490E+03 CYCLES  19


 ENERGY EXPRESSION=HARTREE+FOCK EXCH*0.25000+(PBE        EXCH)*0.75000+PBE        CORR


 TOTAL ENERGY(DFT)(AU)( 19) -2.7300453635490E+03 DE-8.9E-09 tester 8.7E-11
 TTTTTTTTTTTTTTTTTTTTTTTTTTTTTT EDFT        TELAPSE     4871.26 TCPU     4871.21

 *******************************************************************************
 *                             FORCE CALCULATION                               *
 *******************************************************************************

 TTTTTTTTTTTTTTTTTTTTTTTTTTTTTT NUMDFG      TELAPSE     4892.17 TCPU     4892.12
 INFORMATION **** EXCPOG **** EXCH. BIPO BUFFER LENGTH (WORDS) =    10962720
 INFORMATION **** GENPOG **** BIPO BUFFER LENGTH (WORDS) =      900400
 TTTTTTTTTTTTTTTTTTTTTTTTTTTTTT SHELXG      TELAPSE     7184.77 TCPU     7184.72
 GRIMME ENERGY AND GRADIENT CORRECTION

 CARTESIAN FORCES (GRIMME)  XATOM               Y                   Z
   1  15            -1.333190981489E-19  1.745502582550E-03 -4.194177577410E-04
   2  15            -2.953947187709E-18 -1.745502582550E-03 -4.194177577410E-04
   3  15            -1.113407024783E-18  1.853372929166E-03 -1.847122385198E-03
   4  15             1.891007093164E-18 -1.853372929166E-03 -1.847122385198E-03
   5  15            -1.940635014105E-18  1.853372929166E-03  1.847122385198E-03
   6  15             1.100387398396E-18 -1.853372929166E-03  1.847122385198E-03
   7  15             3.008656934103E-18  1.745502582550E-03  4.194177577410E-04
   8  15             1.138412281110E-19 -1.745502582550E-03  4.194177577410E-04

 GRIMME DISPERSION ENERGY (AU) -6.8573866026520E-02
 TOTAL ENERGY + DISP (AU) -2.7301139374151E+03

 CARTESIAN FORCES IN HARTREE/BOHR (ANALYTICAL)
   ATOM                     X                   Y                   Z
   1  15             3.898064090201E-09  7.994387258379E-03 -6.110378946119E-03
   2  15             4.243461424432E-09 -7.994381104881E-03 -6.110357946312E-03
   3  15            -3.582401081824E-08  7.141251791311E-03  4.996877770353E-03
   4  15             3.503336690647E-08 -7.141232492407E-03  4.996947438315E-03
   5  15            -6.996831959763E-08  7.141568450701E-03 -4.996813175040E-03
   6  15             5.967099668599E-08 -7.141592824786E-03 -4.996836547548E-03
   7  15            -2.743438876953E-08  7.993782864482E-03  6.110304932179E-03
   8  15             3.038080701946E-08 -7.993783942513E-03  6.110256474471E-03

 RESULTANT FORCE    -2.305883922711E-14  2.868816295631E-13  2.984279490192E-13

 ATOMIC PART

 SYMMETRY ALLOWED FORCES (ANALYTICAL) (DIRECTION, FORCE)

    1  3.8980641E-09    2  7.9943873E-03    3 -6.1103789E-03    4  4.2434614E-09
    5 -7.9943811E-03    6 -6.1103579E-03    7  3.5033367E-08    8 -7.1412325E-03
    9  4.9969474E-03   10  5.9670997E-08   11 -7.1415928E-03   12 -4.9968365E-03
   13 -2.7434389E-08   14  7.9937829E-03   15  6.1103049E-03   16  3.0380807E-08
   17 -7.9937839E-03   18  6.1102565E-03

 CELL PART

 GRADIENT WITH RESPECT TO THE CELL PARAMETER IN HARTREE/BOHR
 ORDER: -D/DA1X, -D/DA1Y
       -D/DA2X, -D/DA2Y

  0.102816775004E-01 -0.124904938751E-07
  0.129197870776E-07 -0.230440813698E-02

 SYMMETRY ALLOWED FORCES (ANALYTICAL) (DIRECTION, FORCE)

    1  5.3636022E-03    2  9.9355539E-03    3  3.5235059E-09
 TTTTTTTTTTTTTTTTTTTTTTTTTTTTTT TOTGRA_C    TELAPSE     7454.48 TCPU     7454.43
 INFORMATION **** optc001 **** GEOMETRY OUTPUT FILE
 CLASSICAL MODEL (SCHLEGEL) USED AS INITIAL HESSIAN MATRIX
 REFERENCE GEOMETRY DEFINED

 MAX GRADIENT      0.009936  THRESHOLD              0.000450 CONVERGED NO
 RMS GRADIENT      0.005709  THRESHOLD              0.000300 CONVERGED NO

 GRADIENT NORM     0.026161  GRADIENT THRESHOLD     0.500000

 EIGENVALUES OF THE ESTIMATED HESSIAN
  0.2294E-01  0.2707E-01  0.2797E-01  0.3280E-01  0.4178E-01  0.5332E-01
  0.5901E-01  0.7442E-01  0.1019      0.1447      0.1650      0.1720    
  0.1931      0.1957      0.2117      0.2867      0.3039      0.3102    
  0.3224      0.4352      0.4531    

 INITIAL TRUST RADIUS    0.5000000000E+00

 PREDICTED ENERGY CHANGE    -0.411E-02

 INITIAL DISPLACEMENTS
 -0.018875  0.035585 -0.123740 -0.040702 -0.119095 -0.112681 -0.020346 -0.146262
 -0.022579 -0.034672 -0.123204 -0.012752  0.010509 -0.012077  0.095010 -0.008847
 -0.169099  0.101123  0.202244  0.013019  0.040367
 TTTTTTTTTTTTTTTTTTTTTTTTTTTTTT OPTI        TELAPSE     7454.55 TCPU     7454.50

 OPTOPTOPTOPTOPTOPTOPTOPTOPTOPTOPTOPTOPTOPTOPTOPTOPTOPTOPTOPTOPTOPTOPTOPTOPTOPT

 - INFORMATION ON SCF MOVED TO SCFOUT.LOG
 GEOMETRY OPTIMIZATION INFORMATION STORED IN OPTINFO.DAT

 OPTOPTOPTOPTOPTOPTOPTOPTOPTOPTOPTOPTOPTOPTOPTOPTOPTOPTOPTOPTOPTOPTOPTOPTOPTOPT
 *******************************************************************************
 COORDINATE AND CELL OPTIMIZATION - POINT    2
 *******************************************************************************
 LATTICE PARAMETERS (ANGSTROMS AND DEGREES) - BOHR = 0.5291772083 ANGSTROM
 PRIMITIVE CELL
         A              B              C           ALPHA      BETA       GAMMA 
     3.35478854     4.45938295   500.00000000    90.000000  90.000000  89.456308
 *******************************************************************************
 ATOMS IN THE ASYMMETRIC UNIT    8 - ATOMS IN THE UNIT CELL:    8
     ATOM                 X/A                 Y/B             Z(ANGSTROM)
 *******************************************************************************
      1 T  15 P    -2.530544752977E-01 -4.170509797310E-01  3.634519401922E+00
      2 T  15 P     2.434132265719E-01 -9.308472643094E-02  3.640372001979E+00
      3 T  15 P     2.500000000000E-01  7.863000000000E-02  1.550000000000E+00
      4 T  15 P    -2.532925504980E-01  4.036179992064E-01  1.538051880345E+00
      5 T  15 P     2.500000000000E-01 -4.213700000000E-01 -1.550000000000E+00
      6 T  15 P    -2.556109233874E-01 -9.358333089963E-02 -1.556748044984E+00
      7 T  15 P    -2.482994293321E-01  7.716418342890E-02 -3.649723109586E+00
      8 T  15 P     2.485682978624E-01  4.008462939699E-01 -3.646488085909E+00

 T = ATOM BELONGING TO THE ASYMMETRIC UNIT

 TOTAL ENERGY(DFT)(AU)( 14) -2.7301156968128E+03     DE (AU)   -1.759E-03

 UPDATED TRUST RADIUS     0.500E+00

 SYMMETRY ALLOWED FORCES  (COORDINATE, FORCE)

    1  2.9907254E-04    2 -2.7983005E-03    3 -1.5986330E-03    4  7.4893375E-04
    5  3.8886785E-04    6 -8.1616280E-04    7 -2.9524927E-04    8  2.3922119E-03
    9  1.3998192E-03   10  2.4650158E-03   11 -3.0680640E-03   12  3.8393754E-04
   13 -4.1011722E-04   14 -1.0313717E-03   15  9.8576349E-04   16 -5.5786981E-04
   17  3.2506435E-03   18  1.3824937E-03   19 -2.1086088E-02   20 -1.3698292E-02
   21 -4.7162703E-03

 GRADIENT NORM     0.026547  GRADIENT THRESHOLD     0.500000

 EIGENVALUES OF THE ESTIMATED HESSIAN
  0.2399E-01  0.2703E-01  0.2783E-01  0.3275E-01  0.3938E-01  0.5266E-01
  0.5913E-01  0.7702E-01  0.1422      0.1447      0.1691      0.1722    
  0.1940      0.2043      0.2315      0.2867      0.3006      0.3091    
  0.3226      0.4277      0.4541    

 PREDICTED ENERGY CHANGE    -0.160E-02

 MAX GRADIENT      0.021086  THRESHOLD              0.000450 CONVERGED NO
 RMS GRADIENT      0.005793  THRESHOLD              0.000300 CONVERGED NO
 MAX DISPLAC.      0.085424  THRESHOLD              0.001800 CONVERGED NO
 RMS DISPLAC.      0.030879  THRESHOLD              0.001200 CONVERGED NO
 TTTTTTTTTTTTTTTTTTTTTTTTTTTTTT OPTI        TELAPSE    13825.57 TCPU    13825.49
 *******************************************************************************
 COORDINATE AND CELL OPTIMIZATION - POINT    3
 *******************************************************************************
 LATTICE PARAMETERS (ANGSTROMS AND DEGREES) - BOHR = 0.5291772083 ANGSTROM
 PRIMITIVE CELL
         A              B              C           ALPHA      BETA       GAMMA 
     3.29579313     4.44577330   500.00000000    90.000000  90.000000  90.004933
 *******************************************************************************
 ATOMS IN THE ASYMMETRIC UNIT    8 - ATOMS IN THE UNIT CELL:    8
     ATOM                 X/A                 Y/B             Z(ANGSTROM)
 *******************************************************************************
      1 T  15 P    -2.517674910074E-01 -4.201569401046E-01  3.628484167666E+00
      2 T  15 P     2.476284328735E-01 -9.220149760036E-02  3.636950239589E+00
      3 T  15 P     2.500000000000E-01  7.863000000000E-02  1.550000000000E+00
      4 T  15 P    -2.503166693907E-01  4.073572992595E-01  1.537854741964E+00
      5 T  15 P     2.500000000000E-01 -4.213700000000E-01 -1.550000000000E+00
      6 T  15 P    -2.510017850443E-01 -9.142898995122E-02 -1.551053581560E+00
      7 T  15 P    -2.482772107439E-01  7.881825725439E-02 -3.641182362640E+00
      8 T  15 P     2.510453435818E-01  4.069191927749E-01 -3.639014168444E+00

 T = ATOM BELONGING TO THE ASYMMETRIC UNIT

 TOTAL ENERGY(DFT)(AU)(  7) -2.7301172667505E+03     DE (AU)   -1.570E-03

 UPDATED TRUST RADIUS     0.100E+01

 SYMMETRY ALLOWED FORCES  (COORDINATE, FORCE)

    1 -1.9883701E-04    2  2.8774198E-04    3  1.0626509E-03    4  8.0618593E-04
    5 -8.0482822E-04    6  1.2710845E-03    7 -9.6941794E-06    8 -3.3505913E-04
    9 -1.0491099E-03   10  1.0735484E-03   11 -2.1253115E-03   12  1.8284447E-03
   13 -8.7807842E-04   14  8.3937020E-04   15 -9.3947182E-04   16  2.7855966E-04
   17 -4.0447893E-04   18 -1.3858556E-03   19  1.0644289E-03   20 -4.6001001E-04
   21  1.2957722E-03

 GRADIENT NORM     0.004683  GRADIENT THRESHOLD     0.500000

 EIGENVALUES OF THE ESTIMATED HESSIAN
  0.2422E-01  0.2706E-01  0.2787E-01  0.3246E-01  0.3939E-01  0.5265E-01
  0.5990E-01  0.7754E-01  0.1349      0.1448      0.1717      0.1784    
  0.1941      0.2078      0.2320      0.2872      0.3058      0.3096    
  0.3224      0.4174      0.4606    

 PREDICTED ENERGY CHANGE    -0.619E-04

 MAX GRADIENT      0.002125  THRESHOLD              0.000450 CONVERGED NO
 RMS GRADIENT      0.001022  THRESHOLD              0.000300 CONVERGED NO
 MAX DISPLAC.      0.016694  THRESHOLD              0.001800 CONVERGED NO
 RMS DISPLAC.      0.007978  THRESHOLD              0.001200 CONVERGED NO
 TTTTTTTTTTTTTTTTTTTTTTTTTTTTTT OPTI        TELAPSE    18450.72 TCPU    18450.65
 *******************************************************************************
 COORDINATE AND CELL OPTIMIZATION - POINT    4
 *******************************************************************************
 LATTICE PARAMETERS (ANGSTROMS AND DEGREES) - BOHR = 0.5291772083 ANGSTROM
 PRIMITIVE CELL
         A              B              C           ALPHA      BETA       GAMMA 
     3.29363819     4.46073790   500.00000000    90.000000  90.000000  89.921896
 *******************************************************************************
 ATOMS IN THE ASYMMETRIC UNIT    8 - ATOMS IN THE UNIT CELL:    8
     ATOM                 X/A                 Y/B             Z(ANGSTROM)
 *******************************************************************************
      1 T  15 P    -2.507511791479E-01 -4.209454183624E-01  3.632684052122E+00
      2 T  15 P     2.486095350656E-01 -9.378673175798E-02  3.642369099931E+00
      3 T  15 P     2.500000000000E-01  7.863000000000E-02  1.550000000000E+00
      4 T  15 P    -2.505351890023E-01  4.064772085748E-01  1.537464379372E+00
      5 T  15 P     2.500000000000E-01 -4.213700000000E-01 -1.550000000000E+00
      6 T  15 P    -2.508118094292E-01 -9.301804027028E-02 -1.548886980339E+00
      7 T  15 P    -2.492107507691E-01  7.896043566493E-02 -3.643866967045E+00
      8 T  15 P     2.500744572716E-01  4.062634528263E-01 -3.643376593279E+00

 T = ATOM BELONGING TO THE ASYMMETRIC UNIT

 TOTAL ENERGY(DFT)(AU)(  7) -2.7301173155010E+03     DE (AU)   -4.875E-05

 UPDATED TRUST RADIUS     0.200E+01

 SYMMETRY ALLOWED FORCES  (COORDINATE, FORCE)

    1  1.1048721E-05    2  1.5127716E-04    3 -1.7271240E-04    4  2.2846258E-04
    5 -2.0308824E-04    6 -2.1640168E-04    7 -5.5761704E-05    8 -7.4365157E-05
    9  2.3991887E-04   10  3.8817277E-04   11 -6.6037398E-04   12  3.3567084E-04
   13 -2.9724934E-04   14  3.6449525E-04   15  4.0145638E-04   16  4.5235578E-05
   17 -2.4766808E-04   18 -8.4502611E-06   19 -5.4713060E-04   20  4.4563160E-04
   21 -5.6137208E-04

 GRADIENT NORM     0.001489  GRADIENT THRESHOLD     0.500000

 EIGENVALUES OF THE ESTIMATED HESSIAN
  0.2421E-01  0.2724E-01  0.2777E-01  0.3095E-01  0.3941E-01  0.5196E-01
  0.6575E-01  0.8282E-01  0.1421      0.1463      0.1687      0.1761    
  0.1886      0.1946      0.2310      0.2869      0.3055      0.3155    
  0.3200      0.4088      0.4687    

 PREDICTED ENERGY CHANGE    -0.788E-05

 MAX GRADIENT      0.000660  THRESHOLD              0.000450 CONVERGED NO
 RMS GRADIENT      0.000325  THRESHOLD              0.000300 CONVERGED NO
 MAX DISPLAC.      0.006019  THRESHOLD              0.001800 CONVERGED NO
 RMS DISPLAC.      0.003015  THRESHOLD              0.001200 CONVERGED NO
 TTTTTTTTTTTTTTTTTTTTTTTTTTTTTT OPTI        TELAPSE    23072.86 TCPU    23072.79
 *******************************************************************************
 COORDINATE AND CELL OPTIMIZATION - POINT    5
 *******************************************************************************
 LATTICE PARAMETERS (ANGSTROMS AND DEGREES) - BOHR = 0.5291772083 ANGSTROM
 PRIMITIVE CELL
         A              B              C           ALPHA      BETA       GAMMA 
     3.29448518     4.45863682   500.00000000    90.000000  90.000000  89.992331
 *******************************************************************************
 ATOMS IN THE ASYMMETRIC UNIT    8 - ATOMS IN THE UNIT CELL:    8
     ATOM                 X/A                 Y/B             Z(ANGSTROM)
 *******************************************************************************
      1 T  15 P    -2.502773531077E-01 -4.210075193107E-01  3.632224875976E+00
      2 T  15 P     2.495779076131E-01 -9.398972394617E-02  3.641960182473E+00
      3 T  15 P     2.500000000000E-01  7.863000000000E-02  1.550000000000E+00
      4 T  15 P    -2.501325149985E-01  4.064156002764E-01  1.537555728963E+00
      5 T  15 P     2.500000000000E-01 -4.213700000000E-01 -1.550000000000E+00
      6 T  15 P    -2.503276330257E-01 -9.345897163533E-02 -1.546238642310E+00
      7 T  15 P    -2.497514695246E-01  7.902165557562E-02 -3.640682053784E+00
      8 T  15 P     2.500813565129E-01  4.061011784557E-01 -3.642452627457E+00

 T = ATOM BELONGING TO THE ASYMMETRIC UNIT

 TOTAL ENERGY(DFT)(AU)(  5) -2.7301173282743E+03     DE (AU)   -1.277E-05

 UPDATED TRUST RADIUS     0.400E+01

 SYMMETRY ALLOWED FORCES  (COORDINATE, FORCE)

    1 -3.1207827E-05    2 -5.3885531E-05    3 -1.7389664E-05    4  1.0650319E-04
    5  4.8369691E-05    6 -5.1620613E-05    7  3.2879926E-05    8  2.3398175E-05
    9  7.4815246E-05   10  2.6577451E-04   11 -6.2553477E-05   12  3.2393404E-04
   13 -1.3079295E-04   14  1.1113679E-05   15  2.0241853E-04   16  4.0562403E-05
   17  1.5496034E-06   18 -1.2601846E-04   19  2.6231228E-05   20 -1.9622342E-04
   21  2.2782206E-04

 GRADIENT NORM     0.000612  GRADIENT THRESHOLD     0.500000

 EIGENVALUES OF THE ESTIMATED HESSIAN
  0.2296E-01  0.2673E-01  0.2726E-01  0.2888E-01  0.3798E-01  0.4495E-01
  0.6560E-01  0.8226E-01  0.1422      0.1524      0.1739      0.1772    
  0.1853      0.1989      0.2316      0.2868      0.3054      0.3141    
  0.3174      0.4088      0.5050    

 PREDICTED ENERGY CHANGE    -0.247E-05

 MAX GRADIENT      0.000324  THRESHOLD              0.000450 CONVERGED YES
 RMS GRADIENT      0.000133  THRESHOLD              0.000300 CONVERGED YES
 MAX DISPLAC.      0.006949  THRESHOLD              0.001800 CONVERGED NO
 RMS DISPLAC.      0.002531  THRESHOLD              0.001200 CONVERGED NO
 TTTTTTTTTTTTTTTTTTTTTTTTTTTTTT OPTI        TELAPSE    27200.12 TCPU    27200.04
 *******************************************************************************
 COORDINATE AND CELL OPTIMIZATION - POINT    6
 *******************************************************************************
 LATTICE PARAMETERS (ANGSTROMS AND DEGREES) - BOHR = 0.5291772083 ANGSTROM
 PRIMITIVE CELL
         A              B              C           ALPHA      BETA       GAMMA 
     3.29372285     4.46087396   500.00000000    90.000000  90.000000  89.998500
 *******************************************************************************
 ATOMS IN THE ASYMMETRIC UNIT    8 - ATOMS IN THE UNIT CELL:    8
     ATOM                 X/A                 Y/B             Z(ANGSTROM)
 *******************************************************************************
      1 T  15 P    -2.499161817900E-01 -4.210351991964E-01  3.631867286290E+00
      2 T  15 P     2.500905783604E-01 -9.414742923964E-02  3.641487913195E+00
      3 T  15 P     2.500000000000E-01  7.863000000000E-02  1.550000000000E+00
      4 T  15 P    -2.500057271005E-01  4.062770887998E-01  1.537726509999E+00
      5 T  15 P     2.500000000000E-01 -4.213700000000E-01 -1.550000000000E+00
      6 T  15 P    -2.499639388938E-01 -9.374710765644E-02 -1.543069437557E+00
      7 T  15 P    -2.500458216983E-01  7.903661017549E-02 -3.637004929725E+00
      8 T  15 P     2.499444045165E-01  4.059029229293E-01 -3.641665787566E+00

 T = ATOM BELONGING TO THE ASYMMETRIC UNIT

 TOTAL ENERGY(DFT)(AU)(  4) -2.7301173322538E+03     DE (AU)   -3.980E-06

 UPDATED TRUST RADIUS     0.400E+01

 SYMMETRY ALLOWED FORCES  (COORDINATE, FORCE)

    1 -4.5824112E-07    2 -5.1611999E-05    3  1.5696664E-05    4 -4.4406260E-05
    5  6.2366983E-05    6  1.3208133E-06    7  1.3101641E-05    8  4.9631607E-05
    9  3.5140532E-05   10 -8.1630872E-05   11  1.3745372E-04   12  1.7719331E-04
   13  3.1763578E-05   14 -1.0593518E-04   15  7.8651372E-05   16  7.1644270E-06
   17  8.4476427E-05   18 -9.5171919E-05   19  1.6307382E-04   20  6.7333814E-05
   21 -5.3966240E-05

 GRADIENT NORM     0.000372  GRADIENT THRESHOLD     0.500000

 EIGENVALUES OF THE ESTIMATED HESSIAN
  0.2340E-01  0.2541E-01  0.2726E-01  0.2822E-01  0.3445E-01  0.4292E-01
  0.6688E-01  0.8152E-01  0.1353      0.1560      0.1739      0.1754    
  0.1906      0.2023      0.2352      0.2873      0.3055      0.3162    
  0.3183      0.4323      0.5015    

 PREDICTED ENERGY CHANGE    -0.574E-06

 MAX GRADIENT      0.000177  THRESHOLD              0.000450 CONVERGED YES
 RMS GRADIENT      0.000081  THRESHOLD              0.000300 CONVERGED YES
 MAX DISPLAC.      0.003455  THRESHOLD              0.001800 CONVERGED NO
 RMS DISPLAC.      0.001102  THRESHOLD              0.001200 CONVERGED YES
 TTTTTTTTTTTTTTTTTTTTTTTTTTTTTT OPTI        TELAPSE    31083.66 TCPU    31083.58
 *******************************************************************************
 COORDINATE AND CELL OPTIMIZATION - POINT    7
 *******************************************************************************
 LATTICE PARAMETERS (ANGSTROMS AND DEGREES) - BOHR = 0.5291772083 ANGSTROM
 PRIMITIVE CELL
         A              B              C           ALPHA      BETA       GAMMA 
     3.29403751     4.46026596   500.00000000    90.000000  90.000000  90.003624
 *******************************************************************************
 ATOMS IN THE ASYMMETRIC UNIT    8 - ATOMS IN THE UNIT CELL:    8
     ATOM                 X/A                 Y/B             Z(ANGSTROM)
 *******************************************************************************
      1 T  15 P    -2.499256752665E-01 -4.210428122389E-01  3.632322317231E+00
      2 T  15 P     2.501160339412E-01 -9.408812596839E-02  3.641696069109E+00
      3 T  15 P     2.500000000000E-01  7.863000000000E-02  1.550000000000E+00
      4 T  15 P    -2.499621562647E-01  4.063433274791E-01  1.538095397681E+00
      5 T  15 P     2.500000000000E-01 -4.213700000000E-01 -1.550000000000E+00
      6 T  15 P    -2.499143904331E-01 -9.366185384482E-02 -1.541241174707E+00
      7 T  15 P    -2.500662093550E-01  7.903682552191E-02 -3.635385020873E+00
      8 T  15 P     2.499820160591E-01  4.059805710495E-01 -3.641766534573E+00

 T = ATOM BELONGING TO THE ASYMMETRIC UNIT

 TOTAL ENERGY(DFT)(AU)(  3) -2.7301173332495E+03     DE (AU)   -9.957E-07

 UPDATED TRUST RADIUS     0.400E+01

 SYMMETRY ALLOWED FORCES  (COORDINATE, FORCE)

    1  6.6922791E-06    2  5.3854026E-06    3  7.8338679E-06    4 -3.1070651E-05
    5  1.3006499E-05    6  1.5688815E-06    7 -5.6709372E-06    8 -2.1655643E-06
    9  8.6738552E-06   10 -7.5291240E-05   11  4.0389864E-05   12  9.9117536E-05
   13  3.9822823E-05   14 -3.3199778E-05   15  5.1946728E-05   16 -1.1163451E-05
   17  1.4894314E-05   18 -5.7822517E-05   19  5.8848789E-05   20 -3.1228179E-05
   21 -1.4804052E-05

 GRADIENT NORM     0.000180  GRADIENT THRESHOLD     0.500000

 EIGENVALUES OF THE ESTIMATED HESSIAN
  0.1450E-01  0.2646E-01  0.2730E-01  0.2793E-01  0.3073E-01  0.4445E-01
  0.6823E-01  0.8717E-01  0.1266      0.1592      0.1715      0.1742    
  0.1842      0.2018      0.2348      0.2872      0.3056      0.3146    
  0.3180      0.4223      0.5047    

 PREDICTED ENERGY CHANGE    -0.367E-06

 MAX GRADIENT      0.000099  THRESHOLD              0.000450 CONVERGED YES
 RMS GRADIENT      0.000039  THRESHOLD              0.000300 CONVERGED YES
 MAX DISPLAC.      0.004479  THRESHOLD              0.001800 CONVERGED NO
 RMS DISPLAC.      0.001405  THRESHOLD              0.001200 CONVERGED NO
 TTTTTTTTTTTTTTTTTTTTTTTTTTTTTT OPTI        TELAPSE    34711.56 TCPU    34711.48
 *******************************************************************************
 COORDINATE AND CELL OPTIMIZATION - POINT    8
 *******************************************************************************
 LATTICE PARAMETERS (ANGSTROMS AND DEGREES) - BOHR = 0.5291772083 ANGSTROM
 PRIMITIVE CELL
         A              B              C           ALPHA      BETA       GAMMA 
     3.29408215     4.46075440   500.00000000    90.000000  90.000000  90.006316
 *******************************************************************************
 ATOMS IN THE ASYMMETRIC UNIT    8 - ATOMS IN THE UNIT CELL:    8
     ATOM                 X/A                 Y/B             Z(ANGSTROM)
 *******************************************************************************
      1 T  15 P    -2.499515938167E-01 -4.209952793115E-01  3.632555213846E+00
      2 T  15 P     2.500981454753E-01 -9.405866293402E-02  3.641693871316E+00
      3 T  15 P     2.500000000000E-01  7.863000000000E-02  1.550000000000E+00
      4 T  15 P    -2.499516109148E-01  4.063335306109E-01  1.538395912062E+00
      5 T  15 P     2.500000000000E-01 -4.213700000000E-01 -1.550000000000E+00
      6 T  15 P    -2.499173458771E-01 -9.366043015740E-02 -1.538878811759E+00
      7 T  15 P    -2.500577713286E-01  7.900260854182E-02 -3.633014644806E+00
      8 T  15 P     2.500104001315E-01  4.059458897413E-01 -3.641685268063E+00

 T = ATOM BELONGING TO THE ASYMMETRIC UNIT

 TOTAL ENERGY(DFT)(AU)(  3) -2.7301173336136E+03     DE (AU)   -3.641E-07

 UPDATED TRUST RADIUS     0.400E+01

 SYMMETRY ALLOWED FORCES  (COORDINATE, FORCE)

    1  7.4594028E-07    2  1.7697913E-06    3 -7.1223767E-06    4 -1.5288801E-05
    5 -1.0139509E-05    6  3.6659689E-06    7 -2.6210545E-06    8 -2.1145500E-06
    9  4.7506974E-06   10 -4.5589700E-05   11 -1.6538471E-05   12 -2.0703092E-05
   13  3.4548988E-05   14  1.4548907E-05   15 -1.8362077E-05   16 -1.4444648E-05
   17 -1.3314885E-05   18  1.0238381E-05   19 -8.7165745E-05   20  1.7257133E-05
   21  3.1400465E-05

 GRADIENT NORM     0.000120  GRADIENT THRESHOLD     0.500000

 EIGENVALUES OF THE ESTIMATED HESSIAN
  0.1858E-01  0.2645E-01  0.2746E-01  0.2787E-01  0.2985E-01  0.4475E-01
  0.7022E-01  0.8760E-01  0.1267      0.1603      0.1674      0.1740    
  0.1831      0.2018      0.2359      0.2871      0.3052      0.3143    
  0.3186      0.4347      0.5058    

 PREDICTED ENERGY CHANGE    -0.628E-07

 MAX GRADIENT      0.000087  THRESHOLD              0.000450 CONVERGED YES
 RMS GRADIENT      0.000026  THRESHOLD              0.000300 CONVERGED YES
 MAX DISPLAC.      0.000919  THRESHOLD              0.001800 CONVERGED YES
 RMS DISPLAC.      0.000370  THRESHOLD              0.001200 CONVERGED YES

 CONVERGENCE TESTS SATISFIED AFTER   8 ENERGY AND GRADIENT CALCULATIONS
 +++++++++++++++++++++++++++++++++++++++++++++++++++++++++++++++++++++++++++++++
 FINALRUN OPTION: RE-STARTING OPTIMIZATION
 +++++++++++++++++++++++++++++++++++++++++++++++++++++++++++++++++++++++++++++++
 TTTTTTTTTTTTTTTTTTTTTTTTTTTTTT OPTI        TELAPSE    38348.69 TCPU    38348.60
 *******************************************************************************
 COORDINATE AND CELL OPTIMIZATION - POINT    9
 *******************************************************************************
 LATTICE PARAMETERS (ANGSTROMS AND DEGREES) - BOHR = 0.5291772083 ANGSTROM
 PRIMITIVE CELL
         A              B              C           ALPHA      BETA       GAMMA 
     3.29406005     4.46033198   500.00000000    90.000000  90.000000  89.998996
 *******************************************************************************
 ATOMS IN THE ASYMMETRIC UNIT    8 - ATOMS IN THE UNIT CELL:    8
     ATOM                 X/A                 Y/B             Z(ANGSTROM)
 *******************************************************************************
      1 T  15 P    -2.499827192362E-01 -4.210137300903E-01  3.632543606955E+00
      2 T  15 P     2.500191505814E-01 -9.405653013120E-02  3.641726917396E+00
      3 T  15 P     2.500000000000E-01  7.863000000000E-02  1.550000000000E+00
      4 T  15 P    -2.499996804284E-01  4.063522799048E-01  1.538364458551E+00
      5 T  15 P     2.500000000000E-01 -4.213700000000E-01 -1.550000000000E+00
      6 T  15 P    -2.499831858603E-01 -9.364519332329E-02 -1.539323006578E+00
      7 T  15 P    -2.500159985660E-01  7.900834124842E-02 -3.633501102822E+00
      8 T  15 P     2.499887105214E-01  4.059699761973E-01 -3.641740598684E+00

 T = ATOM BELONGING TO THE ASYMMETRIC UNIT

 REFERENCE GEOMETRY WILL BE CHANGED

 TOTAL ENERGY(DFT)(AU)( 11) -2.7301172479457E+03     DE (AU)    8.567E-05

 SYMMETRY ALLOWED FORCES  (COORDINATE, FORCE)

    1  3.8325232E-06    2  1.2420871E-04    3  1.5072889E-05    4 -9.7032826E-06
    5 -7.0798908E-05    6  3.9419867E-05    7 -2.3843198E-06    8 -1.5177114E-04
    9  2.9843997E-05   10 -2.2295352E-05   11 -1.4464518E-04   12  1.1989784E-05
   13  1.2449223E-05   14  1.2304633E-04   15  1.5402956E-05   16 -5.9538876E-06
   17 -7.9666103E-05   18 -6.9344797E-05   19  1.8113747E-04   20 -9.1607934E-05
   21 -2.9553263E-05

 GRADIENT NORM     0.000370  GRADIENT THRESHOLD     0.500000

 HESSIAN UPDATE SKIPPED

 EIGENVALUES OF THE ESTIMATED HESSIAN
  0.1858E-01  0.2645E-01  0.2746E-01  0.2787E-01  0.2985E-01  0.4475E-01
  0.7022E-01  0.8760E-01  0.1267      0.1603      0.1674      0.1740    
  0.1831      0.2018      0.2359      0.2871      0.3052      0.3143    
  0.3186      0.4347      0.5058    

 PREDICTED ENERGY CHANGE    -0.701E-06

 MAX GRADIENT      0.000181  THRESHOLD              0.000450 CONVERGED YES
 RMS GRADIENT      0.000081  THRESHOLD              0.000300 CONVERGED YES
 MAX DISPLAC.      0.002192  THRESHOLD              0.001800 CONVERGED NO
 RMS DISPLAC.      0.000975  THRESHOLD              0.001200 CONVERGED YES
 TTTTTTTTTTTTTTTTTTTTTTTTTTTTTT OPTI        TELAPSE    43889.53 TCPU    43889.44
 *******************************************************************************
 COORDINATE AND CELL OPTIMIZATION - POINT   10
 *******************************************************************************
 LATTICE PARAMETERS (ANGSTROMS AND DEGREES) - BOHR = 0.5291772083 ANGSTROM
 PRIMITIVE CELL
         A              B              C           ALPHA      BETA       GAMMA 
     3.29409276     4.46264177   500.00000000    90.000000  90.000000  90.008460
 *******************************************************************************
 ATOMS IN THE ASYMMETRIC UNIT    8 - ATOMS IN THE UNIT CELL:    8
     ATOM                 X/A                 Y/B             Z(ANGSTROM)
 *******************************************************************************
      1 T  15 P    -2.500182560432E-01 -4.209382343973E-01  3.632374828731E+00
      2 T  15 P     2.500208705414E-01 -9.418200645643E-02  3.641514739460E+00
      3 T  15 P     2.500000000000E-01  7.863000000000E-02  1.550000000000E+00
      4 T  15 P    -2.499468307214E-01  4.061265003433E-01  1.538542486342E+00
      5 T  15 P     2.500000000000E-01 -4.213700000000E-01 -1.550000000000E+00
      6 T  15 P    -2.499645192641E-01 -9.383667247256E-02 -1.539321595139E+00
      7 T  15 P    -2.499806070492E-01  7.907627211913E-02 -3.633185471937E+00
      8 T  15 P     2.500679812088E-01  4.058357571364E-01 -3.641579875890E+00

 T = ATOM BELONGING TO THE ASYMMETRIC UNIT

 TOTAL ENERGY(DFT)(AU)(  3) -2.7301172480678E+03     DE (AU)   -1.222E-07

 UPDATED TRUST RADIUS     0.112E-02

 SYMMETRY ALLOWED FORCES  (COORDINATE, FORCE)

    1 -5.0988121E-06    2  1.9580646E-05    3  4.3033819E-07    4  1.5247694E-05
    5 -2.8407721E-05    6  4.2219351E-06    7 -8.4953133E-06    8 -6.1949426E-06
    9  3.5441491E-05   10  1.7477965E-05   11 -5.1325068E-05   12 -6.4658528E-06
   13 -8.4677289E-06   14  2.0698237E-05   15  2.3539147E-05   16 -2.7702489E-06
   17 -2.1931103E-05   18 -1.8537157E-05   19 -8.4027623E-05   20 -4.6970508E-05
   21  1.1760233E-04

 GRADIENT NORM     0.000175  GRADIENT THRESHOLD     0.500000

 EIGENVALUES OF THE ESTIMATED HESSIAN
  0.1835E-01  0.2573E-01  0.2771E-01  0.2812E-01  0.2992E-01  0.4576E-01
  0.6785E-01  0.8590E-01  0.1241      0.1566      0.1675      0.1721    
  0.1861      0.2016      0.2442      0.2873      0.3054      0.3170    
  0.3195      0.4453      0.5083    
 NEWTON STEP ( 0.1666129727E-02) EXCEEDS TRUST RADIUS ( 0.1116493865E-02)
 LEVEL SHIFT    -0.4943023366E-03

 PREDICTED ENERGY CHANGE    -0.740E-07

 MAX GRADIENT      0.000118  THRESHOLD              0.000450 CONVERGED YES
 RMS GRADIENT      0.000038  THRESHOLD              0.000300 CONVERGED YES
 MAX DISPLAC.      0.000537  THRESHOLD              0.001800 CONVERGED YES
 RMS DISPLAC.      0.000244  THRESHOLD              0.001200 CONVERGED YES

 CONVERGENCE TESTS SATISFIED AFTER  10 ENERGY AND GRADIENT CALCULATIONS
 +++++++++++++++++++++++++++++++++++++++++++++++++++++++++++++++++++++++++++++++
 FINALRUN OPTION: RE-STARTING OPTIMIZATION
 +++++++++++++++++++++++++++++++++++++++++++++++++++++++++++++++++++++++++++++++
 TTTTTTTTTTTTTTTTTTTTTTTTTTTTTT OPTI        TELAPSE    47464.70 TCPU    47464.61
 *******************************************************************************
 COORDINATE AND CELL OPTIMIZATION - POINT   11
 *******************************************************************************
 LATTICE PARAMETERS (ANGSTROMS AND DEGREES) - BOHR = 0.5291772083 ANGSTROM
 PRIMITIVE CELL
         A              B              C           ALPHA      BETA       GAMMA 
     3.29400428     4.46278516   500.00000000    90.000000  90.000000  90.001902
 *******************************************************************************
 ATOMS IN THE ASYMMETRIC UNIT    8 - ATOMS IN THE UNIT CELL:    8
     ATOM                 X/A                 Y/B             Z(ANGSTROM)
 *******************************************************************************
      1 T  15 P    -2.500019207010E-01 -4.209460829187E-01  3.632461643661E+00
      2 T  15 P     2.500101901927E-01 -9.421278815670E-02  3.641530001473E+00
      3 T  15 P     2.500000000000E-01  7.863000000000E-02  1.550000000000E+00
      4 T  15 P    -2.499815187864E-01  4.061106153149E-01  1.538708898854E+00
      5 T  15 P     2.500000000000E-01 -4.213700000000E-01 -1.550000000000E+00
      6 T  15 P    -2.499864188737E-01 -9.387379184557E-02 -1.539124057504E+00
      7 T  15 P    -2.499980772885E-01  7.907174242089E-02 -3.632901395412E+00
      8 T  15 P     2.500185232964E-01  4.058118423740E-01 -3.641552477004E+00

 T = ATOM BELONGING TO THE ASYMMETRIC UNIT

 REFERENCE GEOMETRY WILL BE CHANGED

 TOTAL ENERGY(DFT)(AU)(  3) -2.7301172467103E+03     DE (AU)    1.357E-06

 SYMMETRY ALLOWED FORCES  (COORDINATE, FORCE)

    1  1.4136221E-07    2  6.9386339E-06    3  1.1527100E-05    4  6.8381321E-07
    5  8.6001573E-07    6  1.1312157E-06    7 -6.0922602E-06    8 -7.6460307E-06
    9  1.3685415E-05   10 -6.3909683E-07   11 -2.0519986E-05   12 -4.6809378E-06
   13  3.5892441E-06   14  1.0291074E-05   15  6.2598295E-07   16 -3.6800844E-06
   17 -9.9620510E-06   18 -8.7190758E-06   19  2.4399492E-05   20 -5.2721651E-05
   21  4.2967436E-06

 GRADIENT NORM     0.000068  GRADIENT THRESHOLD     0.500000

 HESSIAN UPDATE SKIPPED

 EIGENVALUES OF THE ESTIMATED HESSIAN
  0.1835E-01  0.2573E-01  0.2771E-01  0.2812E-01  0.2992E-01  0.4576E-01
  0.6785E-01  0.8590E-01  0.1241      0.1566      0.1675      0.1721    
  0.1861      0.2016      0.2442      0.2873      0.3054      0.3170    
  0.3195      0.4453      0.5083    

 PREDICTED ENERGY CHANGE    -0.309E-07

 MAX GRADIENT      0.000053  THRESHOLD              0.000450 CONVERGED YES
 RMS GRADIENT      0.000015  THRESHOLD              0.000300 CONVERGED YES
 MAX DISPLAC.      0.000658  THRESHOLD              0.001800 CONVERGED YES
 RMS DISPLAC.      0.000221  THRESHOLD              0.001200 CONVERGED YES

 CONVERGENCE TESTS SATISFIED AFTER  11 ENERGY AND GRADIENT CALCULATIONS

 ******************************************************************
 * OPT END - CONVERGED * E(AU):  -2.730117246710E+03  POINTS   11 *
 ******************************************************************

   BAND GAP:                      1.7092  eV 

 EIGENVECTORS IN FORTRAN UNIT 10

 NEIGHBORS OF THE NON-EQUIVALENT ATOMS

 N = NUMBER OF NEIGHBORS AT DISTANCE R
    ATOM  N     R/ANG      R/AU   NEIGHBORS (ATOM LABELS AND CELL INDICES)
   1 P    1     2.1997     4.1569    2 P    0 0 0
   1 P    1     2.1997     4.1569    2 P   -1 0 0
   1 P    1     2.2315     4.2169    4 P    0-1 0
   1 P    2     3.2940     6.2248    1 P   -1 0 0    1 P    1 0 0
   1 P    1     3.4264     6.4749    2 P   -1-1 0
   1 P    1     3.4265     6.4752    2 P    0-1 0

   2 P    1     2.1997     4.1569    1 P    0 0 0
   2 P    1     2.1997     4.1569    1 P    1 0 0
   2 P    1     2.2292     4.2126    3 P    0 0 0
   2 P    2     3.2940     6.2248    2 P   -1 0 0    2 P    1 0 0
   2 P    1     3.4264     6.4749    1 P    1 1 0
   2 P    1     3.4265     6.4752    1 P    0 1 0

   3 P    1     2.2020     4.1611    4 P    0 0 0
   3 P    1     2.2020     4.1611    4 P    1 0 0
   3 P    1     2.2292     4.2126    2 P    0 0 0
   3 P    2     3.2940     6.2248    3 P   -1 0 0    3 P    1 0 0
   3 P    1     3.4235     6.4694    4 P    0-1 0
   3 P    1     3.4236     6.4697    4 P    1-1 0

   4 P    1     2.2020     4.1611    3 P    0 0 0
   4 P    1     2.2020     4.1611    3 P   -1 0 0
   4 P    1     2.2315     4.2169    1 P    0 1 0
   4 P    2     3.2940     6.2248    4 P   -1 0 0    4 P    1 0 0
   4 P    1     3.4235     6.4694    3 P    0 1 0
   4 P    1     3.4236     6.4697    3 P   -1 1 0

   5 P    1     2.2020     4.1612    6 P    1 0 0
   5 P    1     2.2020     4.1612    6 P    0 0 0
   5 P    1     2.2292     4.2126    8 P    0-1 0
   5 P    2     3.2940     6.2248    5 P   -1 0 0    5 P    1 0 0
   5 P    1     3.4234     6.4693    6 P    0-1 0
   5 P    1     3.4235     6.4696    6 P    1-1 0

   6 P    1     2.2020     4.1612    5 P   -1 0 0
   6 P    1     2.2020     4.1612    5 P    0 0 0
   6 P    1     2.2315     4.2169    7 P    0 0 0
   6 P    2     3.2940     6.2248    6 P   -1 0 0    6 P    1 0 0
   6 P    1     3.4234     6.4693    5 P    0 1 0
   6 P    1     3.4235     6.4696    5 P   -1 1 0

   7 P    1     2.1998     4.1569    8 P   -1 0 0
   7 P    1     2.1998     4.1570    8 P    0 0 0
   7 P    1     2.2315     4.2169    6 P    0 0 0
   7 P    2     3.2940     6.2248    7 P   -1 0 0    7 P    1 0 0
   7 P    1     3.4264     6.4749    8 P   -1-1 0
   7 P    1     3.4265     6.4751    8 P    0-1 0

   8 P    1     2.1998     4.1569    7 P    1 0 0
   8 P    1     2.1998     4.1570    7 P    0 0 0
   8 P    1     2.2292     4.2126    5 P    0 1 0
   8 P    2     3.2940     6.2248    8 P   -1 0 0    8 P    1 0 0
   8 P    1     3.4264     6.4749    7 P    1 1 0
   8 P    1     3.4265     6.4751    7 P    0 1 0


 FINAL OPTIMIZED GEOMETRY - DIMENSIONALITY OF THE SYSTEM      2
 (NON PERIODIC DIRECTION: LATTICE PARAMETER FORMALLY SET TO 500)
 *******************************************************************************
 LATTICE PARAMETERS (ANGSTROMS AND DEGREES) - BOHR = 0.5291772083 ANGSTROM
 PRIMITIVE CELL
         A              B              C           ALPHA      BETA       GAMMA 
     3.29400428     4.46278516   500.00000000    90.000000  90.000000  90.001902
 *******************************************************************************
 ATOMS IN THE ASYMMETRIC UNIT    8 - ATOMS IN THE UNIT CELL:    8
     ATOM                 X/A                 Y/B             Z(ANGSTROM)
 *******************************************************************************
      1 T  15 P    -2.500019207010E-01 -4.209460829187E-01  3.632461643661E+00
      2 T  15 P     2.500101901927E-01 -9.421278815670E-02  3.641530001473E+00
      3 T  15 P     2.500000000000E-01  7.863000000000E-02  1.550000000000E+00
      4 T  15 P    -2.499815187864E-01  4.061106153149E-01  1.538708898854E+00
      5 T  15 P     2.500000000000E-01 -4.213700000000E-01 -1.550000000000E+00
      6 T  15 P    -2.499864188737E-01 -9.387379184557E-02 -1.539124057504E+00
      7 T  15 P    -2.499980772885E-01  7.907174242089E-02 -3.632901395412E+00
      8 T  15 P     2.500185232964E-01  4.058118423740E-01 -3.641552477004E+00

 T = ATOM BELONGING TO THE ASYMMETRIC UNIT
 INFORMATION **** fort.34 **** GEOMETRY OUTPUT FILE

 DIRECT LATTICE VECTORS CARTESIAN COMPONENTS (ANGSTROM)
          X                    Y                    Z
   0.329400428104E+01   0.384873482462E-04   0.000000000000E+00
  -0.200277554578E-03   0.446278515618E+01   0.000000000000E+00
   0.000000000000E+00   0.000000000000E+00   0.500000000000E+03


 CARTESIAN COORDINATES - PRIMITIVE CELL
 *******************************************************************************
 *      ATOM          X(ANGSTROM)         Y(ANGSTROM)         Z(ANGSTROM)
 *******************************************************************************
    1    15 P    -8.234230910060E-01 -1.878601552312E+00  3.632461643661E+00
    2    15 P     8.235535055060E-01 -4.204418102787E-01  3.641530001473E+00
    3    15 P     8.234853224367E-01  3.509184186674E-01  1.550000000000E+00
    4    15 P    -8.235215279051E-01  1.812374804668E+00  1.538708898854E+00
    5    15 P     8.235854612140E-01 -1.880474159422E+00 -1.550000000000E+00
    6    15 P    -8.234375331593E-01 -4.189481861170E-01 -1.539124057504E+00
    7    15 P    -8.235105731362E-01  3.528705765861E-01 -3.632901395412E+00
    8    15 P     8.234808110750E-01  1.811060688898E+00 -3.641552477004E+00

 ****    1 SYMMOPS - TRANSLATORS IN FRACTIONAL UNITS
 **** MATRICES AND TRANSLATORS IN THE CRYSTALLOGRAPHIC REFERENCE FRAME
   V INV                    ROTATION MATRICES                   TRANSLATORS
   1   1  1.00  0.00  0.00  0.00  1.00  0.00  0.00  0.00  1.00  0.00  0.00  0.00
 TTTTTTTTTTTTTTTTTTTTTTTTTTTTTT END         TELAPSE    51145.82 TCPU    51145.73
 EEEEEEEEEE TERMINATION  DATE 01 12 2017 TIME 02:09:42.0
NODE    0 CPU TIME =     51145.732
NODE    1 CPU TIME =     51145.764
NODE    2 CPU TIME =     51145.580
NODE    3 CPU TIME =     51145.821
NODE    4 CPU TIME =     51145.731
NODE    5 CPU TIME =     51145.708
NODE    6 CPU TIME =     51145.566
NODE    7 CPU TIME =     51145.749
NODE    8 CPU TIME =     51145.780
NODE    9 CPU TIME =     51145.808
NODE   10 CPU TIME =     51145.853
NODE   11 CPU TIME =     51145.767
NODE   12 CPU TIME =     51145.706
NODE   13 CPU TIME =     51145.802
    TOTAL CPU TIME =    716040.366
